n -t * -s 0  -x 323 -y 184 -Z 0 -z 20  -v circle -c black
n -t * -s 1  -x 126 -y 234 -Z 0 -z 20  -v circle -c black
n -t * -s 2  -x 341 -y 380 -Z 0 -z 20  -v circle -c black
n -t * -s 3  -x 568 -y 214 -Z 0 -z 20  -v circle -c black
n -t * -s 4  -x 427 -y 5 -Z 0 -z 20  -v circle -c black
n -t * -s 5  -x 175 -y -17 -Z 0 -z 20  -v circle -c black
V -t * -v 1.0a5 -a 0
W -t * -x 1283 -y 100
A -t * -n 1 -p 0 -o 0x7fffffff -c 30 -a 1
A -t * -h 1 -m 1073741823 -s 0
+ -t 0.477566739 -s 3 -d -1 -p message -e 32 -c 2 -a 0 -i 0 -k RTR 
- -t 0.477566739 -s 3 -d -1 -p message -e 32 -c 2 -a 0 -i 0 -k RTR
h -t 0.477566739 -s 3 -d -1 -p message -e 32 -c 2 -a 0 -i 0 -k RTR
+ -t 0.478181739 -s 3 -d -1 -p message -e 90 -c 2 -a 0 -i 0 -k MAC 
- -t 0.478181739 -s 3 -d -1 -p message -e 90 -c 2 -a 0 -i 0 -k MAC
h -t 0.478181739 -s 3 -d -1 -p message -e 90 -c 2 -a 0 -i 0 -k MAC
r -t 0.478902562 -s 0 -d -1 -p message -e 32 -c 2 -a 0 -i 0 -k MAC
r -t 0.478927562 -s 0 -d -1 -p message -e 32 -c 2 -a 0 -i 0 -k RTR
+ -t 0.619296198 -s 5 -d -1 -p message -e 32 -c 2 -a 0 -i 1 -k RTR 
- -t 0.619296198 -s 5 -d -1 -p message -e 32 -c 2 -a 0 -i 1 -k RTR
h -t 0.619296198 -s 5 -d -1 -p message -e 32 -c 2 -a 0 -i 1 -k RTR
+ -t 0.619531198 -s 5 -d -1 -p message -e 90 -c 2 -a 0 -i 1 -k MAC 
- -t 0.619531198 -s 5 -d -1 -p message -e 90 -c 2 -a 0 -i 1 -k MAC
h -t 0.619531198 -s 5 -d -1 -p message -e 90 -c 2 -a 0 -i 1 -k MAC
r -t 0.620252030 -s 0 -d -1 -p message -e 32 -c 2 -a 0 -i 1 -k MAC
r -t 0.620277030 -s 0 -d -1 -p message -e 32 -c 2 -a 0 -i 1 -k RTR
+ -t 0.626864932 -s 1 -d -1 -p message -e 32 -c 2 -a 0 -i 2 -k RTR 
- -t 0.626864932 -s 1 -d -1 -p message -e 32 -c 2 -a 0 -i 2 -k RTR
h -t 0.626864932 -s 1 -d -1 -p message -e 32 -c 2 -a 0 -i 2 -k RTR
+ -t 0.627139932 -s 1 -d -1 -p message -e 90 -c 2 -a 0 -i 2 -k MAC 
- -t 0.627139932 -s 1 -d -1 -p message -e 90 -c 2 -a 0 -i 2 -k MAC
h -t 0.627139932 -s 1 -d -1 -p message -e 90 -c 2 -a 0 -i 2 -k MAC
r -t 0.627860609 -s 0 -d -1 -p message -e 32 -c 2 -a 0 -i 2 -k MAC
r -t 0.627885609 -s 0 -d -1 -p message -e 32 -c 2 -a 0 -i 2 -k RTR
+ -t 1.000000000 -s 1 -d -1 -p tcp -e 40 -c 2 -a 0 -i 3 -k AGT 
- -t 1.000000000 -s 1 -d -1 -p tcp -e 40 -c 2 -a 0 -i 3 -k AGT
h -t 1.000000000 -s 1 -d -1 -p tcp -e 40 -c 2 -a 0 -i 3 -k AGT
+ -t 1.000000000 -s 2 -d -1 -p tcp -e 40 -c 2 -a 0 -i 4 -k AGT 
- -t 1.000000000 -s 2 -d -1 -p tcp -e 40 -c 2 -a 0 -i 4 -k AGT
h -t 1.000000000 -s 2 -d -1 -p tcp -e 40 -c 2 -a 0 -i 4 -k AGT
+ -t 1.000000000 -s 3 -d -1 -p tcp -e 40 -c 2 -a 0 -i 5 -k AGT 
- -t 1.000000000 -s 3 -d -1 -p tcp -e 40 -c 2 -a 0 -i 5 -k AGT
h -t 1.000000000 -s 3 -d -1 -p tcp -e 40 -c 2 -a 0 -i 5 -k AGT
+ -t 1.000000000 -s 4 -d -1 -p tcp -e 40 -c 2 -a 0 -i 6 -k AGT 
- -t 1.000000000 -s 4 -d -1 -p tcp -e 40 -c 2 -a 0 -i 6 -k AGT
h -t 1.000000000 -s 4 -d -1 -p tcp -e 40 -c 2 -a 0 -i 6 -k AGT
+ -t 1.000000000 -s 5 -d -1 -p tcp -e 40 -c 2 -a 0 -i 7 -k AGT 
- -t 1.000000000 -s 5 -d -1 -p tcp -e 40 -c 2 -a 0 -i 7 -k AGT
h -t 1.000000000 -s 5 -d -1 -p tcp -e 40 -c 2 -a 0 -i 7 -k AGT
+ -t 1.281817143 -s 4 -d -1 -p message -e 32 -c 2 -a 0 -i 8 -k RTR 
- -t 1.281817143 -s 4 -d -1 -p message -e 32 -c 2 -a 0 -i 8 -k RTR
h -t 1.281817143 -s 4 -d -1 -p message -e 32 -c 2 -a 0 -i 8 -k RTR
+ -t 1.282332143 -s 4 -d -1 -p message -e 90 -c 2 -a 0 -i 8 -k MAC 
- -t 1.282332143 -s 4 -d -1 -p message -e 90 -c 2 -a 0 -i 8 -k MAC
h -t 1.282332143 -s 4 -d -1 -p message -e 90 -c 2 -a 0 -i 8 -k MAC
r -t 1.283052833 -s 0 -d -1 -p message -e 32 -c 2 -a 0 -i 8 -k MAC
r -t 1.283077833 -s 0 -d -1 -p message -e 32 -c 2 -a 0 -i 8 -k RTR
+ -t 1.606931580 -s 0 -d -1 -p message -e 32 -c 2 -a 0 -i 9 -k RTR 
- -t 1.606931580 -s 0 -d -1 -p message -e 32 -c 2 -a 0 -i 9 -k RTR
h -t 1.606931580 -s 0 -d -1 -p message -e 32 -c 2 -a 0 -i 9 -k RTR
+ -t 1.607546580 -s 0 -d -1 -p message -e 90 -c 2 -a 0 -i 9 -k MAC 
- -t 1.607546580 -s 0 -d -1 -p message -e 90 -c 2 -a 0 -i 9 -k MAC
h -t 1.607546580 -s 0 -d -1 -p message -e 90 -c 2 -a 0 -i 9 -k MAC
r -t 1.608267236 -s 2 -d -1 -p message -e 32 -c 2 -a 0 -i 9 -k MAC
r -t 1.608267257 -s 1 -d -1 -p message -e 32 -c 2 -a 0 -i 9 -k MAC
r -t 1.608267270 -s 4 -d -1 -p message -e 32 -c 2 -a 0 -i 9 -k MAC
r -t 1.608267403 -s 3 -d -1 -p message -e 32 -c 2 -a 0 -i 9 -k MAC
r -t 1.608267412 -s 5 -d -1 -p message -e 32 -c 2 -a 0 -i 9 -k MAC
r -t 1.608292236 -s 2 -d -1 -p message -e 32 -c 2 -a 0 -i 9 -k RTR
+ -t 1.608292236 -s 2 -d 0 -p tcp -e 80 -c 2 -a 0 -i 4 -k RTR 
- -t 1.608292236 -s 2 -d 0 -p tcp -e 80 -c 2 -a 0 -i 4 -k RTR
h -t 1.608292236 -s 2 -d 0 -p tcp -e 80 -c 2 -a 0 -i 4 -k RTR
r -t 1.608292257 -s 1 -d -1 -p message -e 32 -c 2 -a 0 -i 9 -k RTR
+ -t 1.608292257 -s 1 -d 0 -p tcp -e 80 -c 2 -a 0 -i 3 -k RTR 
- -t 1.608292257 -s 1 -d 0 -p tcp -e 80 -c 2 -a 0 -i 3 -k RTR
h -t 1.608292257 -s 1 -d 0 -p tcp -e 80 -c 2 -a 0 -i 3 -k RTR
r -t 1.608292270 -s 4 -d -1 -p message -e 32 -c 2 -a 0 -i 9 -k RTR
+ -t 1.608292270 -s 4 -d 0 -p tcp -e 80 -c 2 -a 0 -i 6 -k RTR 
- -t 1.608292270 -s 4 -d 0 -p tcp -e 80 -c 2 -a 0 -i 6 -k RTR
h -t 1.608292270 -s 4 -d 0 -p tcp -e 80 -c 2 -a 0 -i 6 -k RTR
r -t 1.608292403 -s 3 -d -1 -p message -e 32 -c 2 -a 0 -i 9 -k RTR
+ -t 1.608292403 -s 3 -d 0 -p tcp -e 80 -c 2 -a 0 -i 5 -k RTR 
- -t 1.608292403 -s 3 -d 0 -p tcp -e 80 -c 2 -a 0 -i 5 -k RTR
h -t 1.608292403 -s 3 -d 0 -p tcp -e 80 -c 2 -a 0 -i 5 -k RTR
r -t 1.608292412 -s 5 -d -1 -p message -e 32 -c 2 -a 0 -i 9 -k RTR
+ -t 1.608292412 -s 5 -d 0 -p tcp -e 80 -c 2 -a 0 -i 7 -k RTR 
- -t 1.608292412 -s 5 -d 0 -p tcp -e 80 -c 2 -a 0 -i 7 -k RTR
h -t 1.608292412 -s 5 -d 0 -p tcp -e 80 -c 2 -a 0 -i 7 -k RTR
+ -t 1.608387236 -s 2 -d -1 -p ARP -e 86 -c 2 -a 0 -i 0 -k MAC 
- -t 1.608387236 -s 2 -d -1 -p ARP -e 86 -c 2 -a 0 -i 0 -k MAC
h -t 1.608387236 -s 2 -d -1 -p ARP -e 86 -c 2 -a 0 -i 0 -k MAC
r -t 1.609075892 -s 0 -d -1 -p ARP -e 28 -c 2 -a 0 -i 0 -k MAC
+ -t 1.609425892 -s 0 -d -1 -p RTS -e 44 -c 2 -a 0 -i 0 -k MAC 
- -t 1.609425892 -s 0 -d -1 -p RTS -e 44 -c 2 -a 0 -i 0 -k MAC
h -t 1.609425892 -s 0 -d -1 -p RTS -e 44 -c 2 -a 0 -i 0 -k MAC
r -t 1.609778548 -s 2 -d -1 -p RTS -e 44 -c 2 -a 0 -i 0 -k MAC
+ -t 1.609788548 -s 2 -d -1 -p CTS -e 38 -c 2 -a 0 -i 0 -k MAC 
- -t 1.609788548 -s 2 -d -1 -p CTS -e 38 -c 2 -a 0 -i 0 -k MAC
h -t 1.609788548 -s 2 -d -1 -p CTS -e 38 -c 2 -a 0 -i 0 -k MAC
r -t 1.610093204 -s 0 -d -1 -p CTS -e 38 -c 2 -a 0 -i 0 -k MAC
+ -t 1.610103204 -s 0 -d -1 -p ARP -e 86 -c 2 -a 0 -i 0 -k MAC 
- -t 1.610103204 -s 0 -d -1 -p ARP -e 86 -c 2 -a 0 -i 0 -k MAC
h -t 1.610103204 -s 0 -d -1 -p ARP -e 86 -c 2 -a 0 -i 0 -k MAC
r -t 1.610791860 -s 2 -d -1 -p ARP -e 28 -c 2 -a 0 -i 0 -k MAC
+ -t 1.610801860 -s 2 -d -1 -p ACK -e 38 -c 2 -a 0 -i 0 -k MAC 
- -t 1.610801860 -s 2 -d -1 -p ACK -e 38 -c 2 -a 0 -i 0 -k MAC
h -t 1.610801860 -s 2 -d -1 -p ACK -e 38 -c 2 -a 0 -i 0 -k MAC
r -t 1.611106516 -s 0 -d -1 -p ACK -e 38 -c 2 -a 0 -i 0 -k MAC
+ -t 1.611355860 -s 2 -d -1 -p RTS -e 44 -c 2 -a 0 -i 0 -k MAC 
- -t 1.611355860 -s 2 -d -1 -p RTS -e 44 -c 2 -a 0 -i 0 -k MAC
h -t 1.611355860 -s 2 -d -1 -p RTS -e 44 -c 2 -a 0 -i 0 -k MAC
r -t 1.611708516 -s 0 -d -1 -p RTS -e 44 -c 2 -a 0 -i 0 -k MAC
+ -t 1.611718516 -s 0 -d -1 -p CTS -e 38 -c 2 -a 0 -i 0 -k MAC 
- -t 1.611718516 -s 0 -d -1 -p CTS -e 38 -c 2 -a 0 -i 0 -k MAC
h -t 1.611718516 -s 0 -d -1 -p CTS -e 38 -c 2 -a 0 -i 0 -k MAC
r -t 1.612023172 -s 2 -d -1 -p CTS -e 38 -c 2 -a 0 -i 0 -k MAC
+ -t 1.612033172 -s 2 -d 0 -p tcp -e 138 -c 2 -a 0 -i 4 -k MAC 
- -t 1.612033172 -s 2 -d 0 -p tcp -e 138 -c 2 -a 0 -i 4 -k MAC
h -t 1.612033172 -s 2 -d 0 -p tcp -e 138 -c 2 -a 0 -i 4 -k MAC
r -t 1.613137828 -s 0 -d 0 -p tcp -e 80 -c 2 -a 0 -i 4 -k MAC
+ -t 1.613147828 -s 0 -d -1 -p ACK -e 38 -c 2 -a 0 -i 0 -k MAC 
- -t 1.613147828 -s 0 -d -1 -p ACK -e 38 -c 2 -a 0 -i 0 -k MAC
h -t 1.613147828 -s 0 -d -1 -p ACK -e 38 -c 2 -a 0 -i 0 -k MAC
r -t 1.613162828 -s 0 -d 0 -p tcp -e 80 -c 2 -a 0 -i 4 -k AGT
+ -t 1.613162828 -s 0 -d -1 -p ack -e 40 -c 2 -a 0 -i 10 -k AGT 
- -t 1.613162828 -s 0 -d -1 -p ack -e 40 -c 2 -a 0 -i 10 -k AGT
h -t 1.613162828 -s 0 -d -1 -p ack -e 40 -c 2 -a 0 -i 10 -k AGT
r -t 1.613452485 -s 2 -d -1 -p ACK -e 38 -c 2 -a 0 -i 0 -k MAC
+ -t 1.613592607 -s 5 -d -1 -p ARP -e 86 -c 2 -a 0 -i 0 -k MAC 
- -t 1.613592607 -s 5 -d -1 -p ARP -e 86 -c 2 -a 0 -i 0 -k MAC
h -t 1.613592607 -s 5 -d -1 -p ARP -e 86 -c 2 -a 0 -i 0 -k MAC
r -t 1.614281439 -s 0 -d -1 -p ARP -e 28 -c 2 -a 0 -i 0 -k MAC
+ -t 1.614536439 -s 0 -d -1 -p RTS -e 44 -c 2 -a 0 -i 0 -k MAC 
- -t 1.614536439 -s 0 -d -1 -p RTS -e 44 -c 2 -a 0 -i 0 -k MAC
h -t 1.614536439 -s 0 -d -1 -p RTS -e 44 -c 2 -a 0 -i 0 -k MAC
r -t 1.614889271 -s 5 -d -1 -p RTS -e 44 -c 2 -a 0 -i 0 -k MAC
+ -t 1.614899271 -s 5 -d -1 -p CTS -e 38 -c 2 -a 0 -i 0 -k MAC 
- -t 1.614899271 -s 5 -d -1 -p CTS -e 38 -c 2 -a 0 -i 0 -k MAC
h -t 1.614899271 -s 5 -d -1 -p CTS -e 38 -c 2 -a 0 -i 0 -k MAC
r -t 1.615204103 -s 0 -d -1 -p CTS -e 38 -c 2 -a 0 -i 0 -k MAC
+ -t 1.615214103 -s 0 -d -1 -p ARP -e 86 -c 2 -a 0 -i 0 -k MAC 
- -t 1.615214103 -s 0 -d -1 -p ARP -e 86 -c 2 -a 0 -i 0 -k MAC
h -t 1.615214103 -s 0 -d -1 -p ARP -e 86 -c 2 -a 0 -i 0 -k MAC
r -t 1.615902935 -s 5 -d -1 -p ARP -e 28 -c 2 -a 0 -i 0 -k MAC
+ -t 1.615912935 -s 5 -d -1 -p ACK -e 38 -c 2 -a 0 -i 0 -k MAC 
- -t 1.615912935 -s 5 -d -1 -p ACK -e 38 -c 2 -a 0 -i 0 -k MAC
h -t 1.615912935 -s 5 -d -1 -p ACK -e 38 -c 2 -a 0 -i 0 -k MAC
r -t 1.616217767 -s 0 -d -1 -p ACK -e 38 -c 2 -a 0 -i 0 -k MAC
+ -t 1.616286935 -s 5 -d -1 -p RTS -e 44 -c 2 -a 0 -i 0 -k MAC 
- -t 1.616286935 -s 5 -d -1 -p RTS -e 44 -c 2 -a 0 -i 0 -k MAC
h -t 1.616286935 -s 5 -d -1 -p RTS -e 44 -c 2 -a 0 -i 0 -k MAC
r -t 1.616639767 -s 0 -d -1 -p RTS -e 44 -c 2 -a 0 -i 0 -k MAC
+ -t 1.616649767 -s 0 -d -1 -p CTS -e 38 -c 2 -a 0 -i 0 -k MAC 
- -t 1.616649767 -s 0 -d -1 -p CTS -e 38 -c 2 -a 0 -i 0 -k MAC
h -t 1.616649767 -s 0 -d -1 -p CTS -e 38 -c 2 -a 0 -i 0 -k MAC
r -t 1.616954599 -s 5 -d -1 -p CTS -e 38 -c 2 -a 0 -i 0 -k MAC
+ -t 1.616964599 -s 5 -d 0 -p tcp -e 138 -c 2 -a 0 -i 7 -k MAC 
- -t 1.616964599 -s 5 -d 0 -p tcp -e 138 -c 2 -a 0 -i 7 -k MAC
h -t 1.616964599 -s 5 -d 0 -p tcp -e 138 -c 2 -a 0 -i 7 -k MAC
r -t 1.618069431 -s 0 -d 0 -p tcp -e 80 -c 2 -a 0 -i 7 -k MAC
+ -t 1.618079431 -s 0 -d -1 -p ACK -e 38 -c 2 -a 0 -i 0 -k MAC 
- -t 1.618079431 -s 0 -d -1 -p ACK -e 38 -c 2 -a 0 -i 0 -k MAC
h -t 1.618079431 -s 0 -d -1 -p ACK -e 38 -c 2 -a 0 -i 0 -k MAC
r -t 1.618094431 -s 0 -d 0 -p tcp -e 80 -c 2 -a 0 -i 7 -k AGT
+ -t 1.618094431 -s 0 -d -1 -p ack -e 40 -c 2 -a 0 -i 11 -k AGT 
- -t 1.618094431 -s 0 -d -1 -p ack -e 40 -c 2 -a 0 -i 11 -k AGT
h -t 1.618094431 -s 0 -d -1 -p ack -e 40 -c 2 -a 0 -i 11 -k AGT
+ -t 1.618094431 -s 0 -d 5 -p ack -e 60 -c 2 -a 0 -i 11 -k RTR 
- -t 1.618094431 -s 0 -d 5 -p ack -e 60 -c 2 -a 0 -i 11 -k RTR
h -t 1.618094431 -s 0 -d 5 -p ack -e 60 -c 2 -a 0 -i 11 -k RTR
r -t 1.618384263 -s 5 -d -1 -p ACK -e 38 -c 2 -a 0 -i 0 -k MAC
+ -t 1.618544118 -s 3 -d -1 -p ARP -e 86 -c 2 -a 0 -i 0 -k MAC 
- -t 1.618544118 -s 3 -d -1 -p ARP -e 86 -c 2 -a 0 -i 0 -k MAC
h -t 1.618544118 -s 3 -d -1 -p ARP -e 86 -c 2 -a 0 -i 0 -k MAC
r -t 1.619232941 -s 0 -d -1 -p ARP -e 28 -c 2 -a 0 -i 0 -k MAC
+ -t 1.619762941 -s 0 -d -1 -p RTS -e 44 -c 2 -a 0 -i 0 -k MAC 
- -t 1.619762941 -s 0 -d -1 -p RTS -e 44 -c 2 -a 0 -i 0 -k MAC
h -t 1.619762941 -s 0 -d -1 -p RTS -e 44 -c 2 -a 0 -i 0 -k MAC
r -t 1.620115773 -s 5 -d -1 -p RTS -e 44 -c 2 -a 0 -i 0 -k MAC
+ -t 1.620125773 -s 5 -d -1 -p CTS -e 38 -c 2 -a 0 -i 0 -k MAC 
- -t 1.620125773 -s 5 -d -1 -p CTS -e 38 -c 2 -a 0 -i 0 -k MAC
h -t 1.620125773 -s 5 -d -1 -p CTS -e 38 -c 2 -a 0 -i 0 -k MAC
r -t 1.620430605 -s 0 -d -1 -p CTS -e 38 -c 2 -a 0 -i 0 -k MAC
+ -t 1.620440605 -s 0 -d 5 -p ack -e 118 -c 2 -a 0 -i 11 -k MAC 
- -t 1.620440605 -s 0 -d 5 -p ack -e 118 -c 2 -a 0 -i 11 -k MAC
h -t 1.620440605 -s 0 -d 5 -p ack -e 118 -c 2 -a 0 -i 11 -k MAC
r -t 1.621385437 -s 5 -d 5 -p ack -e 60 -c 2 -a 0 -i 11 -k MAC
+ -t 1.621395437 -s 5 -d -1 -p ACK -e 38 -c 2 -a 0 -i 0 -k MAC 
- -t 1.621395437 -s 5 -d -1 -p ACK -e 38 -c 2 -a 0 -i 0 -k MAC
h -t 1.621395437 -s 5 -d -1 -p ACK -e 38 -c 2 -a 0 -i 0 -k MAC
r -t 1.621410437 -s 5 -d 5 -p ack -e 60 -c 2 -a 0 -i 11 -k AGT
+ -t 1.621410437 -s 5 -d -1 -p tcp -e 1540 -c 2 -a 0 -i 12 -k AGT 
- -t 1.621410437 -s 5 -d -1 -p tcp -e 1540 -c 2 -a 0 -i 12 -k AGT
h -t 1.621410437 -s 5 -d -1 -p tcp -e 1540 -c 2 -a 0 -i 12 -k AGT
+ -t 1.621410437 -s 5 -d 0 -p tcp -e 1560 -c 2 -a 0 -i 12 -k RTR 
- -t 1.621410437 -s 5 -d 0 -p tcp -e 1560 -c 2 -a 0 -i 12 -k RTR
h -t 1.621410437 -s 5 -d 0 -p tcp -e 1560 -c 2 -a 0 -i 12 -k RTR
+ -t 1.621410437 -s 5 -d -1 -p tcp -e 1540 -c 2 -a 0 -i 13 -k AGT 
- -t 1.621410437 -s 5 -d -1 -p tcp -e 1540 -c 2 -a 0 -i 13 -k AGT
h -t 1.621410437 -s 5 -d -1 -p tcp -e 1540 -c 2 -a 0 -i 13 -k AGT
+ -t 1.621410437 -s 5 -d 0 -p tcp -e 1560 -c 2 -a 0 -i 13 -k RTR 
- -t 1.621410437 -s 5 -d 0 -p tcp -e 1560 -c 2 -a 0 -i 13 -k RTR
h -t 1.621410437 -s 5 -d 0 -p tcp -e 1560 -c 2 -a 0 -i 13 -k RTR
r -t 1.621700269 -s 0 -d -1 -p ACK -e 38 -c 2 -a 0 -i 0 -k MAC
+ -t 1.622089437 -s 5 -d -1 -p RTS -e 44 -c 2 -a 0 -i 0 -k MAC 
- -t 1.622089437 -s 5 -d -1 -p RTS -e 44 -c 2 -a 0 -i 0 -k MAC
h -t 1.622089437 -s 5 -d -1 -p RTS -e 44 -c 2 -a 0 -i 0 -k MAC
r -t 1.622442269 -s 0 -d -1 -p RTS -e 44 -c 2 -a 0 -i 0 -k MAC
+ -t 1.622452269 -s 0 -d -1 -p CTS -e 38 -c 2 -a 0 -i 0 -k MAC 
- -t 1.622452269 -s 0 -d -1 -p CTS -e 38 -c 2 -a 0 -i 0 -k MAC
h -t 1.622452269 -s 0 -d -1 -p CTS -e 38 -c 2 -a 0 -i 0 -k MAC
r -t 1.622757101 -s 5 -d -1 -p CTS -e 38 -c 2 -a 0 -i 0 -k MAC
+ -t 1.622767101 -s 5 -d 0 -p tcp -e 1618 -c 2 -a 0 -i 12 -k MAC 
- -t 1.622767101 -s 5 -d 0 -p tcp -e 1618 -c 2 -a 0 -i 12 -k MAC
h -t 1.622767101 -s 5 -d 0 -p tcp -e 1618 -c 2 -a 0 -i 12 -k MAC
+ -t 1.634183138 -s 2 -d -1 -p message -e 44 -c 2 -a 0 -i 14 -k RTR 
- -t 1.634183138 -s 2 -d -1 -p message -e 44 -c 2 -a 0 -i 14 -k RTR
h -t 1.634183138 -s 2 -d -1 -p message -e 44 -c 2 -a 0 -i 14 -k RTR
r -t 1.635711933 -s 0 -d 0 -p tcp -e 1560 -c 2 -a 0 -i 12 -k MAC
+ -t 1.635721933 -s 0 -d -1 -p ACK -e 38 -c 2 -a 0 -i 0 -k MAC 
- -t 1.635721933 -s 0 -d -1 -p ACK -e 38 -c 2 -a 0 -i 0 -k MAC
h -t 1.635721933 -s 0 -d -1 -p ACK -e 38 -c 2 -a 0 -i 0 -k MAC
r -t 1.635736933 -s 0 -d 0 -p tcp -e 1560 -c 2 -a 0 -i 12 -k AGT
+ -t 1.635736933 -s 0 -d -1 -p ack -e 40 -c 2 -a 0 -i 15 -k AGT 
- -t 1.635736933 -s 0 -d -1 -p ack -e 40 -c 2 -a 0 -i 15 -k AGT
h -t 1.635736933 -s 0 -d -1 -p ack -e 40 -c 2 -a 0 -i 15 -k AGT
+ -t 1.635736933 -s 0 -d 5 -p ack -e 60 -c 2 -a 0 -i 15 -k RTR 
- -t 1.635736933 -s 0 -d 5 -p ack -e 60 -c 2 -a 0 -i 15 -k RTR
h -t 1.635736933 -s 0 -d 5 -p ack -e 60 -c 2 -a 0 -i 15 -k RTR
r -t 1.636026765 -s 5 -d -1 -p ACK -e 38 -c 2 -a 0 -i 0 -k MAC
+ -t 1.636185954 -s 1 -d -1 -p ARP -e 86 -c 2 -a 0 -i 0 -k MAC 
- -t 1.636185954 -s 1 -d -1 -p ARP -e 86 -c 2 -a 0 -i 0 -k MAC
h -t 1.636185954 -s 1 -d -1 -p ARP -e 86 -c 2 -a 0 -i 0 -k MAC
r -t 1.636874631 -s 0 -d -1 -p ARP -e 28 -c 2 -a 0 -i 0 -k MAC
+ -t 1.637004631 -s 0 -d -1 -p RTS -e 44 -c 2 -a 0 -i 0 -k MAC 
- -t 1.637004631 -s 0 -d -1 -p RTS -e 44 -c 2 -a 0 -i 0 -k MAC
h -t 1.637004631 -s 0 -d -1 -p RTS -e 44 -c 2 -a 0 -i 0 -k MAC
r -t 1.637357454 -s 3 -d -1 -p RTS -e 44 -c 2 -a 0 -i 0 -k MAC
+ -t 1.637367454 -s 3 -d -1 -p CTS -e 38 -c 2 -a 0 -i 0 -k MAC 
- -t 1.637367454 -s 3 -d -1 -p CTS -e 38 -c 2 -a 0 -i 0 -k MAC
h -t 1.637367454 -s 3 -d -1 -p CTS -e 38 -c 2 -a 0 -i 0 -k MAC
r -t 1.637672277 -s 0 -d -1 -p CTS -e 38 -c 2 -a 0 -i 0 -k MAC
+ -t 1.637682277 -s 0 -d -1 -p ARP -e 86 -c 2 -a 0 -i 0 -k MAC 
- -t 1.637682277 -s 0 -d -1 -p ARP -e 86 -c 2 -a 0 -i 0 -k MAC
h -t 1.637682277 -s 0 -d -1 -p ARP -e 86 -c 2 -a 0 -i 0 -k MAC
r -t 1.638371100 -s 3 -d -1 -p ARP -e 28 -c 2 -a 0 -i 0 -k MAC
+ -t 1.638381100 -s 3 -d -1 -p ACK -e 38 -c 2 -a 0 -i 0 -k MAC 
- -t 1.638381100 -s 3 -d -1 -p ACK -e 38 -c 2 -a 0 -i 0 -k MAC
h -t 1.638381100 -s 3 -d -1 -p ACK -e 38 -c 2 -a 0 -i 0 -k MAC
r -t 1.638685922 -s 0 -d -1 -p ACK -e 38 -c 2 -a 0 -i 0 -k MAC
+ -t 1.638735100 -s 3 -d -1 -p RTS -e 44 -c 2 -a 0 -i 0 -k MAC 
- -t 1.638735100 -s 3 -d -1 -p RTS -e 44 -c 2 -a 0 -i 0 -k MAC
h -t 1.638735100 -s 3 -d -1 -p RTS -e 44 -c 2 -a 0 -i 0 -k MAC
r -t 1.639087922 -s 0 -d -1 -p RTS -e 44 -c 2 -a 0 -i 0 -k MAC
+ -t 1.639097922 -s 0 -d -1 -p CTS -e 38 -c 2 -a 0 -i 0 -k MAC 
- -t 1.639097922 -s 0 -d -1 -p CTS -e 38 -c 2 -a 0 -i 0 -k MAC
h -t 1.639097922 -s 0 -d -1 -p CTS -e 38 -c 2 -a 0 -i 0 -k MAC
r -t 1.639402745 -s 3 -d -1 -p CTS -e 38 -c 2 -a 0 -i 0 -k MAC
+ -t 1.639412745 -s 3 -d 0 -p tcp -e 138 -c 2 -a 0 -i 5 -k MAC 
- -t 1.639412745 -s 3 -d 0 -p tcp -e 138 -c 2 -a 0 -i 5 -k MAC
h -t 1.639412745 -s 3 -d 0 -p tcp -e 138 -c 2 -a 0 -i 5 -k MAC
r -t 1.640517568 -s 0 -d 0 -p tcp -e 80 -c 2 -a 0 -i 5 -k MAC
+ -t 1.640527568 -s 0 -d -1 -p ACK -e 38 -c 2 -a 0 -i 0 -k MAC 
- -t 1.640527568 -s 0 -d -1 -p ACK -e 38 -c 2 -a 0 -i 0 -k MAC
h -t 1.640527568 -s 0 -d -1 -p ACK -e 38 -c 2 -a 0 -i 0 -k MAC
r -t 1.640542568 -s 0 -d 0 -p tcp -e 80 -c 2 -a 0 -i 5 -k AGT
+ -t 1.640542568 -s 0 -d -1 -p ack -e 40 -c 2 -a 0 -i 16 -k AGT 
- -t 1.640542568 -s 0 -d -1 -p ack -e 40 -c 2 -a 0 -i 16 -k AGT
h -t 1.640542568 -s 0 -d -1 -p ack -e 40 -c 2 -a 0 -i 16 -k AGT
+ -t 1.640542568 -s 0 -d 3 -p ack -e 60 -c 2 -a 0 -i 16 -k RTR 
- -t 1.640542568 -s 0 -d 3 -p ack -e 60 -c 2 -a 0 -i 16 -k RTR
h -t 1.640542568 -s 0 -d 3 -p ack -e 60 -c 2 -a 0 -i 16 -k RTR
r -t 1.640832391 -s 3 -d -1 -p ACK -e 38 -c 2 -a 0 -i 0 -k MAC
+ -t 1.640991586 -s 4 -d -1 -p ARP -e 86 -c 2 -a 0 -i 0 -k MAC 
- -t 1.640991586 -s 4 -d -1 -p ARP -e 86 -c 2 -a 0 -i 0 -k MAC
h -t 1.640991586 -s 4 -d -1 -p ARP -e 86 -c 2 -a 0 -i 0 -k MAC
r -t 1.641680276 -s 0 -d -1 -p ARP -e 28 -c 2 -a 0 -i 0 -k MAC
+ -t 1.641850276 -s 0 -d -1 -p RTS -e 44 -c 2 -a 0 -i 0 -k MAC 
- -t 1.641850276 -s 0 -d -1 -p RTS -e 44 -c 2 -a 0 -i 0 -k MAC
h -t 1.641850276 -s 0 -d -1 -p RTS -e 44 -c 2 -a 0 -i 0 -k MAC
r -t 1.642203108 -s 5 -d -1 -p RTS -e 44 -c 2 -a 0 -i 0 -k MAC
+ -t 1.642213108 -s 5 -d -1 -p CTS -e 38 -c 2 -a 0 -i 0 -k MAC 
- -t 1.642213108 -s 5 -d -1 -p CTS -e 38 -c 2 -a 0 -i 0 -k MAC
h -t 1.642213108 -s 5 -d -1 -p CTS -e 38 -c 2 -a 0 -i 0 -k MAC
r -t 1.642517940 -s 0 -d -1 -p CTS -e 38 -c 2 -a 0 -i 0 -k MAC
+ -t 1.642527940 -s 0 -d 5 -p ack -e 118 -c 2 -a 0 -i 15 -k MAC 
- -t 1.642527940 -s 0 -d 5 -p ack -e 118 -c 2 -a 0 -i 15 -k MAC
h -t 1.642527940 -s 0 -d 5 -p ack -e 118 -c 2 -a 0 -i 15 -k MAC
r -t 1.643472772 -s 5 -d 5 -p ack -e 60 -c 2 -a 0 -i 15 -k MAC
+ -t 1.643482772 -s 5 -d -1 -p ACK -e 38 -c 2 -a 0 -i 0 -k MAC 
- -t 1.643482772 -s 5 -d -1 -p ACK -e 38 -c 2 -a 0 -i 0 -k MAC
h -t 1.643482772 -s 5 -d -1 -p ACK -e 38 -c 2 -a 0 -i 0 -k MAC
r -t 1.643497772 -s 5 -d 5 -p ack -e 60 -c 2 -a 0 -i 15 -k AGT
+ -t 1.643497772 -s 5 -d -1 -p tcp -e 1540 -c 2 -a 0 -i 17 -k AGT 
- -t 1.643497772 -s 5 -d -1 -p tcp -e 1540 -c 2 -a 0 -i 17 -k AGT
h -t 1.643497772 -s 5 -d -1 -p tcp -e 1540 -c 2 -a 0 -i 17 -k AGT
+ -t 1.643497772 -s 5 -d 0 -p tcp -e 1560 -c 2 -a 0 -i 17 -k RTR 
- -t 1.643497772 -s 5 -d 0 -p tcp -e 1560 -c 2 -a 0 -i 17 -k RTR
h -t 1.643497772 -s 5 -d 0 -p tcp -e 1560 -c 2 -a 0 -i 17 -k RTR
+ -t 1.643497772 -s 5 -d -1 -p tcp -e 1540 -c 2 -a 0 -i 18 -k AGT 
- -t 1.643497772 -s 5 -d -1 -p tcp -e 1540 -c 2 -a 0 -i 18 -k AGT
h -t 1.643497772 -s 5 -d -1 -p tcp -e 1540 -c 2 -a 0 -i 18 -k AGT
+ -t 1.643497772 -s 5 -d 0 -p tcp -e 1560 -c 2 -a 0 -i 18 -k RTR 
- -t 1.643497772 -s 5 -d 0 -p tcp -e 1560 -c 2 -a 0 -i 18 -k RTR
h -t 1.643497772 -s 5 -d 0 -p tcp -e 1560 -c 2 -a 0 -i 18 -k RTR
r -t 1.643787604 -s 0 -d -1 -p ACK -e 38 -c 2 -a 0 -i 0 -k MAC
+ -t 1.643956772 -s 5 -d -1 -p RTS -e 44 -c 2 -a 0 -i 0 -k MAC 
- -t 1.643956772 -s 5 -d -1 -p RTS -e 44 -c 2 -a 0 -i 0 -k MAC
h -t 1.643956772 -s 5 -d -1 -p RTS -e 44 -c 2 -a 0 -i 0 -k MAC
r -t 1.644309604 -s 0 -d -1 -p RTS -e 44 -c 2 -a 0 -i 0 -k MAC
+ -t 1.644319604 -s 0 -d -1 -p CTS -e 38 -c 2 -a 0 -i 0 -k MAC 
- -t 1.644319604 -s 0 -d -1 -p CTS -e 38 -c 2 -a 0 -i 0 -k MAC
h -t 1.644319604 -s 0 -d -1 -p CTS -e 38 -c 2 -a 0 -i 0 -k MAC
r -t 1.644624436 -s 5 -d -1 -p CTS -e 38 -c 2 -a 0 -i 0 -k MAC
+ -t 1.644634436 -s 5 -d 0 -p tcp -e 1618 -c 2 -a 0 -i 13 -k MAC 
- -t 1.644634436 -s 5 -d 0 -p tcp -e 1618 -c 2 -a 0 -i 13 -k MAC
h -t 1.644634436 -s 5 -d 0 -p tcp -e 1618 -c 2 -a 0 -i 13 -k MAC
r -t 1.657579268 -s 0 -d 0 -p tcp -e 1560 -c 2 -a 0 -i 13 -k MAC
+ -t 1.657589268 -s 0 -d -1 -p ACK -e 38 -c 2 -a 0 -i 0 -k MAC 
- -t 1.657589268 -s 0 -d -1 -p ACK -e 38 -c 2 -a 0 -i 0 -k MAC
h -t 1.657589268 -s 0 -d -1 -p ACK -e 38 -c 2 -a 0 -i 0 -k MAC
r -t 1.657604268 -s 0 -d 0 -p tcp -e 1560 -c 2 -a 0 -i 13 -k AGT
+ -t 1.657604268 -s 0 -d -1 -p ack -e 40 -c 2 -a 0 -i 19 -k AGT 
- -t 1.657604268 -s 0 -d -1 -p ack -e 40 -c 2 -a 0 -i 19 -k AGT
h -t 1.657604268 -s 0 -d -1 -p ack -e 40 -c 2 -a 0 -i 19 -k AGT
+ -t 1.657604268 -s 0 -d 5 -p ack -e 60 -c 2 -a 0 -i 19 -k RTR 
- -t 1.657604268 -s 0 -d 5 -p ack -e 60 -c 2 -a 0 -i 19 -k RTR
h -t 1.657604268 -s 0 -d 5 -p ack -e 60 -c 2 -a 0 -i 19 -k RTR
r -t 1.657894100 -s 5 -d -1 -p ACK -e 38 -c 2 -a 0 -i 0 -k MAC
+ -t 1.658024100 -s 5 -d -1 -p RTS -e 44 -c 2 -a 0 -i 0 -k MAC 
- -t 1.658024100 -s 5 -d -1 -p RTS -e 44 -c 2 -a 0 -i 0 -k MAC
h -t 1.658024100 -s 5 -d -1 -p RTS -e 44 -c 2 -a 0 -i 0 -k MAC
r -t 1.658376932 -s 0 -d -1 -p RTS -e 44 -c 2 -a 0 -i 0 -k MAC
+ -t 1.658386932 -s 0 -d -1 -p CTS -e 38 -c 2 -a 0 -i 0 -k MAC 
- -t 1.658386932 -s 0 -d -1 -p CTS -e 38 -c 2 -a 0 -i 0 -k MAC
h -t 1.658386932 -s 0 -d -1 -p CTS -e 38 -c 2 -a 0 -i 0 -k MAC
r -t 1.658691764 -s 5 -d -1 -p CTS -e 38 -c 2 -a 0 -i 0 -k MAC
+ -t 1.658701764 -s 5 -d 0 -p tcp -e 1618 -c 2 -a 0 -i 17 -k MAC 
- -t 1.658701764 -s 5 -d 0 -p tcp -e 1618 -c 2 -a 0 -i 17 -k MAC
h -t 1.658701764 -s 5 -d 0 -p tcp -e 1618 -c 2 -a 0 -i 17 -k MAC
r -t 1.671646596 -s 0 -d 0 -p tcp -e 1560 -c 2 -a 0 -i 17 -k MAC
+ -t 1.671656596 -s 0 -d -1 -p ACK -e 38 -c 2 -a 0 -i 0 -k MAC 
- -t 1.671656596 -s 0 -d -1 -p ACK -e 38 -c 2 -a 0 -i 0 -k MAC
h -t 1.671656596 -s 0 -d -1 -p ACK -e 38 -c 2 -a 0 -i 0 -k MAC
r -t 1.671671596 -s 0 -d 0 -p tcp -e 1560 -c 2 -a 0 -i 17 -k AGT
+ -t 1.671671596 -s 0 -d -1 -p ack -e 40 -c 2 -a 0 -i 20 -k AGT 
- -t 1.671671596 -s 0 -d -1 -p ack -e 40 -c 2 -a 0 -i 20 -k AGT
h -t 1.671671596 -s 0 -d -1 -p ack -e 40 -c 2 -a 0 -i 20 -k AGT
+ -t 1.671671596 -s 0 -d 5 -p ack -e 60 -c 2 -a 0 -i 20 -k RTR 
- -t 1.671671596 -s 0 -d 5 -p ack -e 60 -c 2 -a 0 -i 20 -k RTR
h -t 1.671671596 -s 0 -d 5 -p ack -e 60 -c 2 -a 0 -i 20 -k RTR
r -t 1.671961428 -s 5 -d -1 -p ACK -e 38 -c 2 -a 0 -i 0 -k MAC
+ -t 1.672050596 -s 0 -d -1 -p RTS -e 44 -c 2 -a 0 -i 0 -k MAC 
- -t 1.672050596 -s 0 -d -1 -p RTS -e 44 -c 2 -a 0 -i 0 -k MAC
h -t 1.672050596 -s 0 -d -1 -p RTS -e 44 -c 2 -a 0 -i 0 -k MAC
r -t 1.672403273 -s 1 -d -1 -p RTS -e 44 -c 2 -a 0 -i 0 -k MAC
+ -t 1.672413273 -s 1 -d -1 -p CTS -e 38 -c 2 -a 0 -i 0 -k MAC 
- -t 1.672413273 -s 1 -d -1 -p CTS -e 38 -c 2 -a 0 -i 0 -k MAC
h -t 1.672413273 -s 1 -d -1 -p CTS -e 38 -c 2 -a 0 -i 0 -k MAC
r -t 1.672717951 -s 0 -d -1 -p CTS -e 38 -c 2 -a 0 -i 0 -k MAC
+ -t 1.672727951 -s 0 -d -1 -p ARP -e 86 -c 2 -a 0 -i 0 -k MAC 
- -t 1.672727951 -s 0 -d -1 -p ARP -e 86 -c 2 -a 0 -i 0 -k MAC
h -t 1.672727951 -s 0 -d -1 -p ARP -e 86 -c 2 -a 0 -i 0 -k MAC
r -t 1.673416628 -s 1 -d -1 -p ARP -e 28 -c 2 -a 0 -i 0 -k MAC
+ -t 1.673426628 -s 1 -d -1 -p ACK -e 38 -c 2 -a 0 -i 0 -k MAC 
- -t 1.673426628 -s 1 -d -1 -p ACK -e 38 -c 2 -a 0 -i 0 -k MAC
h -t 1.673426628 -s 1 -d -1 -p ACK -e 38 -c 2 -a 0 -i 0 -k MAC
r -t 1.673731306 -s 0 -d -1 -p ACK -e 38 -c 2 -a 0 -i 0 -k MAC
+ -t 1.673781306 -s 0 -d -1 -p RTS -e 44 -c 2 -a 0 -i 0 -k MAC 
- -t 1.673781306 -s 0 -d -1 -p RTS -e 44 -c 2 -a 0 -i 0 -k MAC
h -t 1.673781306 -s 0 -d -1 -p RTS -e 44 -c 2 -a 0 -i 0 -k MAC
r -t 1.674134129 -s 3 -d -1 -p RTS -e 44 -c 2 -a 0 -i 0 -k MAC
+ -t 1.674144129 -s 3 -d -1 -p CTS -e 38 -c 2 -a 0 -i 0 -k MAC 
- -t 1.674144129 -s 3 -d -1 -p CTS -e 38 -c 2 -a 0 -i 0 -k MAC
h -t 1.674144129 -s 3 -d -1 -p CTS -e 38 -c 2 -a 0 -i 0 -k MAC
r -t 1.674448951 -s 0 -d -1 -p CTS -e 38 -c 2 -a 0 -i 0 -k MAC
+ -t 1.674458951 -s 0 -d 3 -p ack -e 118 -c 2 -a 0 -i 16 -k MAC 
- -t 1.674458951 -s 0 -d 3 -p ack -e 118 -c 2 -a 0 -i 16 -k MAC
h -t 1.674458951 -s 0 -d 3 -p ack -e 118 -c 2 -a 0 -i 16 -k MAC
r -t 1.675403774 -s 3 -d 3 -p ack -e 60 -c 2 -a 0 -i 16 -k MAC
+ -t 1.675413774 -s 3 -d -1 -p ACK -e 38 -c 2 -a 0 -i 0 -k MAC 
- -t 1.675413774 -s 3 -d -1 -p ACK -e 38 -c 2 -a 0 -i 0 -k MAC
h -t 1.675413774 -s 3 -d -1 -p ACK -e 38 -c 2 -a 0 -i 0 -k MAC
r -t 1.675428774 -s 3 -d 3 -p ack -e 60 -c 2 -a 0 -i 16 -k AGT
+ -t 1.675428774 -s 3 -d -1 -p tcp -e 1540 -c 2 -a 0 -i 21 -k AGT 
- -t 1.675428774 -s 3 -d -1 -p tcp -e 1540 -c 2 -a 0 -i 21 -k AGT
h -t 1.675428774 -s 3 -d -1 -p tcp -e 1540 -c 2 -a 0 -i 21 -k AGT
+ -t 1.675428774 -s 3 -d 0 -p tcp -e 1560 -c 2 -a 0 -i 21 -k RTR 
- -t 1.675428774 -s 3 -d 0 -p tcp -e 1560 -c 2 -a 0 -i 21 -k RTR
h -t 1.675428774 -s 3 -d 0 -p tcp -e 1560 -c 2 -a 0 -i 21 -k RTR
+ -t 1.675428774 -s 3 -d -1 -p tcp -e 1540 -c 2 -a 0 -i 22 -k AGT 
- -t 1.675428774 -s 3 -d -1 -p tcp -e 1540 -c 2 -a 0 -i 22 -k AGT
h -t 1.675428774 -s 3 -d -1 -p tcp -e 1540 -c 2 -a 0 -i 22 -k AGT
+ -t 1.675428774 -s 3 -d 0 -p tcp -e 1560 -c 2 -a 0 -i 22 -k RTR 
- -t 1.675428774 -s 3 -d 0 -p tcp -e 1560 -c 2 -a 0 -i 22 -k RTR
h -t 1.675428774 -s 3 -d 0 -p tcp -e 1560 -c 2 -a 0 -i 22 -k RTR
r -t 1.675718597 -s 0 -d -1 -p ACK -e 38 -c 2 -a 0 -i 0 -k MAC
+ -t 1.675967774 -s 3 -d -1 -p RTS -e 44 -c 2 -a 0 -i 0 -k MAC 
- -t 1.675967774 -s 3 -d -1 -p RTS -e 44 -c 2 -a 0 -i 0 -k MAC
h -t 1.675967774 -s 3 -d -1 -p RTS -e 44 -c 2 -a 0 -i 0 -k MAC
r -t 1.676320597 -s 0 -d -1 -p RTS -e 44 -c 2 -a 0 -i 0 -k MAC
+ -t 1.676330597 -s 0 -d -1 -p CTS -e 38 -c 2 -a 0 -i 0 -k MAC 
- -t 1.676330597 -s 0 -d -1 -p CTS -e 38 -c 2 -a 0 -i 0 -k MAC
h -t 1.676330597 -s 0 -d -1 -p CTS -e 38 -c 2 -a 0 -i 0 -k MAC
r -t 1.676635420 -s 3 -d -1 -p CTS -e 38 -c 2 -a 0 -i 0 -k MAC
+ -t 1.676645420 -s 3 -d 0 -p tcp -e 1618 -c 2 -a 0 -i 21 -k MAC 
- -t 1.676645420 -s 3 -d 0 -p tcp -e 1618 -c 2 -a 0 -i 21 -k MAC
h -t 1.676645420 -s 3 -d 0 -p tcp -e 1618 -c 2 -a 0 -i 21 -k MAC
r -t 1.689590243 -s 0 -d 0 -p tcp -e 1560 -c 2 -a 0 -i 21 -k MAC
+ -t 1.689600243 -s 0 -d -1 -p ACK -e 38 -c 2 -a 0 -i 0 -k MAC 
- -t 1.689600243 -s 0 -d -1 -p ACK -e 38 -c 2 -a 0 -i 0 -k MAC
h -t 1.689600243 -s 0 -d -1 -p ACK -e 38 -c 2 -a 0 -i 0 -k MAC
r -t 1.689615243 -s 0 -d 0 -p tcp -e 1560 -c 2 -a 0 -i 21 -k AGT
+ -t 1.689615243 -s 0 -d -1 -p ack -e 40 -c 2 -a 0 -i 23 -k AGT 
- -t 1.689615243 -s 0 -d -1 -p ack -e 40 -c 2 -a 0 -i 23 -k AGT
h -t 1.689615243 -s 0 -d -1 -p ack -e 40 -c 2 -a 0 -i 23 -k AGT
+ -t 1.689615243 -s 0 -d 3 -p ack -e 60 -c 2 -a 0 -i 23 -k RTR 
- -t 1.689615243 -s 0 -d 3 -p ack -e 60 -c 2 -a 0 -i 23 -k RTR
h -t 1.689615243 -s 0 -d 3 -p ack -e 60 -c 2 -a 0 -i 23 -k RTR
r -t 1.689905065 -s 3 -d -1 -p ACK -e 38 -c 2 -a 0 -i 0 -k MAC
+ -t 1.690014243 -s 0 -d -1 -p RTS -e 44 -c 2 -a 0 -i 0 -k MAC 
- -t 1.690014243 -s 0 -d -1 -p RTS -e 44 -c 2 -a 0 -i 0 -k MAC
h -t 1.690014243 -s 0 -d -1 -p RTS -e 44 -c 2 -a 0 -i 0 -k MAC
r -t 1.690366933 -s 4 -d -1 -p RTS -e 44 -c 2 -a 0 -i 0 -k MAC
+ -t 1.690376933 -s 4 -d -1 -p CTS -e 38 -c 2 -a 0 -i 0 -k MAC 
- -t 1.690376933 -s 4 -d -1 -p CTS -e 38 -c 2 -a 0 -i 0 -k MAC
h -t 1.690376933 -s 4 -d -1 -p CTS -e 38 -c 2 -a 0 -i 0 -k MAC
r -t 1.690681623 -s 0 -d -1 -p CTS -e 38 -c 2 -a 0 -i 0 -k MAC
+ -t 1.690691623 -s 0 -d -1 -p ARP -e 86 -c 2 -a 0 -i 0 -k MAC 
- -t 1.690691623 -s 0 -d -1 -p ARP -e 86 -c 2 -a 0 -i 0 -k MAC
h -t 1.690691623 -s 0 -d -1 -p ARP -e 86 -c 2 -a 0 -i 0 -k MAC
r -t 1.691380313 -s 4 -d -1 -p ARP -e 28 -c 2 -a 0 -i 0 -k MAC
+ -t 1.691390313 -s 4 -d -1 -p ACK -e 38 -c 2 -a 0 -i 0 -k MAC 
- -t 1.691390313 -s 4 -d -1 -p ACK -e 38 -c 2 -a 0 -i 0 -k MAC
h -t 1.691390313 -s 4 -d -1 -p ACK -e 38 -c 2 -a 0 -i 0 -k MAC
r -t 1.691695003 -s 0 -d -1 -p ACK -e 38 -c 2 -a 0 -i 0 -k MAC
+ -t 1.691764313 -s 4 -d -1 -p RTS -e 44 -c 2 -a 0 -i 0 -k MAC 
- -t 1.691764313 -s 4 -d -1 -p RTS -e 44 -c 2 -a 0 -i 0 -k MAC
h -t 1.691764313 -s 4 -d -1 -p RTS -e 44 -c 2 -a 0 -i 0 -k MAC
r -t 1.692117003 -s 0 -d -1 -p RTS -e 44 -c 2 -a 0 -i 0 -k MAC
+ -t 1.692127003 -s 0 -d -1 -p CTS -e 38 -c 2 -a 0 -i 0 -k MAC 
- -t 1.692127003 -s 0 -d -1 -p CTS -e 38 -c 2 -a 0 -i 0 -k MAC
h -t 1.692127003 -s 0 -d -1 -p CTS -e 38 -c 2 -a 0 -i 0 -k MAC
r -t 1.692431693 -s 4 -d -1 -p CTS -e 38 -c 2 -a 0 -i 0 -k MAC
+ -t 1.692441693 -s 4 -d 0 -p tcp -e 138 -c 2 -a 0 -i 6 -k MAC 
- -t 1.692441693 -s 4 -d 0 -p tcp -e 138 -c 2 -a 0 -i 6 -k MAC
h -t 1.692441693 -s 4 -d 0 -p tcp -e 138 -c 2 -a 0 -i 6 -k MAC
r -t 1.693546383 -s 0 -d 0 -p tcp -e 80 -c 2 -a 0 -i 6 -k MAC
+ -t 1.693556383 -s 0 -d -1 -p ACK -e 38 -c 2 -a 0 -i 0 -k MAC 
- -t 1.693556383 -s 0 -d -1 -p ACK -e 38 -c 2 -a 0 -i 0 -k MAC
h -t 1.693556383 -s 0 -d -1 -p ACK -e 38 -c 2 -a 0 -i 0 -k MAC
r -t 1.693571383 -s 0 -d 0 -p tcp -e 80 -c 2 -a 0 -i 6 -k AGT
+ -t 1.693571383 -s 0 -d -1 -p ack -e 40 -c 2 -a 0 -i 24 -k AGT 
- -t 1.693571383 -s 0 -d -1 -p ack -e 40 -c 2 -a 0 -i 24 -k AGT
h -t 1.693571383 -s 0 -d -1 -p ack -e 40 -c 2 -a 0 -i 24 -k AGT
+ -t 1.693571383 -s 0 -d 4 -p ack -e 60 -c 2 -a 0 -i 24 -k RTR 
- -t 1.693571383 -s 0 -d 4 -p ack -e 60 -c 2 -a 0 -i 24 -k RTR
h -t 1.693571383 -s 0 -d 4 -p ack -e 60 -c 2 -a 0 -i 24 -k RTR
r -t 1.693861073 -s 4 -d -1 -p ACK -e 38 -c 2 -a 0 -i 0 -k MAC
+ -t 1.694100975 -s 2 -d -1 -p message -e 102 -c 2 -a 0 -i 14 -k MAC 
- -t 1.694100975 -s 2 -d -1 -p message -e 102 -c 2 -a 0 -i 14 -k MAC
h -t 1.694100975 -s 2 -d -1 -p message -e 102 -c 2 -a 0 -i 14 -k MAC
r -t 1.694917631 -s 0 -d -1 -p message -e 44 -c 2 -a 0 -i 14 -k MAC
r -t 1.694942631 -s 0 -d -1 -p message -e 44 -c 2 -a 0 -i 14 -k RTR
+ -t 1.694942631 -s 0 -d 2 -p ack -e 80 -c 2 -a 0 -i 10 -k RTR 
- -t 1.694942631 -s 0 -d 2 -p ack -e 80 -c 2 -a 0 -i 10 -k RTR
h -t 1.694942631 -s 0 -d 2 -p ack -e 80 -c 2 -a 0 -i 10 -k RTR
+ -t 1.695067631 -s 0 -d -1 -p RTS -e 44 -c 2 -a 0 -i 0 -k MAC 
- -t 1.695067631 -s 0 -d -1 -p RTS -e 44 -c 2 -a 0 -i 0 -k MAC
h -t 1.695067631 -s 0 -d -1 -p RTS -e 44 -c 2 -a 0 -i 0 -k MAC
r -t 1.695420463 -s 5 -d -1 -p RTS -e 44 -c 2 -a 0 -i 0 -k MAC