s 0.477566739 _3_ RTR  --- 0 message 32 [0 0 0 0] ------- [3:255 -1:255 32 0] 
s 0.478181739 _3_ MAC  --- 0 message 90 [0 ffffffff 3 800] ------- [3:255 -1:255 32 0] 
r 0.478902562 _0_ MAC  --- 0 message 32 [0 ffffffff 3 800] ------- [3:255 -1:255 32 0] 
r 0.478927562 _0_ RTR  --- 0 message 32 [0 ffffffff 3 800] ------- [3:255 -1:255 32 0] 
s 0.619296198 _5_ RTR  --- 1 message 32 [0 0 0 0] ------- [5:255 -1:255 32 0] 
s 0.619531198 _5_ MAC  --- 1 message 90 [0 ffffffff 5 800] ------- [5:255 -1:255 32 0] 
r 0.620252030 _0_ MAC  --- 1 message 32 [0 ffffffff 5 800] ------- [5:255 -1:255 32 0] 
r 0.620277030 _0_ RTR  --- 1 message 32 [0 ffffffff 5 800] ------- [5:255 -1:255 32 0] 
s 0.626864932 _1_ RTR  --- 2 message 32 [0 0 0 0] ------- [1:255 -1:255 32 0] 
s 0.627139932 _1_ MAC  --- 2 message 90 [0 ffffffff 1 800] ------- [1:255 -1:255 32 0] 
r 0.627860609 _0_ MAC  --- 2 message 32 [0 ffffffff 1 800] ------- [1:255 -1:255 32 0] 
r 0.627885609 _0_ RTR  --- 2 message 32 [0 ffffffff 1 800] ------- [1:255 -1:255 32 0] 
s 1.000000000 _1_ AGT  --- 3 tcp 40 [0 0 0 0] ------- [1:0 0:0 32 0] [0 0] 0 0
r 1.000000000 _1_ RTR  --- 3 tcp 40 [0 0 0 0] ------- [1:0 0:0 32 0] [0 0] 0 0
s 1.000000000 _2_ AGT  --- 4 tcp 40 [0 0 0 0] ------- [2:0 0:1 32 0] [0 0] 0 0
r 1.000000000 _2_ RTR  --- 4 tcp 40 [0 0 0 0] ------- [2:0 0:1 32 0] [0 0] 0 0
s 1.000000000 _3_ AGT  --- 5 tcp 40 [0 0 0 0] ------- [3:0 0:2 32 0] [0 0] 0 0
r 1.000000000 _3_ RTR  --- 5 tcp 40 [0 0 0 0] ------- [3:0 0:2 32 0] [0 0] 0 0
s 1.000000000 _4_ AGT  --- 6 tcp 40 [0 0 0 0] ------- [4:0 0:3 32 0] [0 0] 0 0
r 1.000000000 _4_ RTR  --- 6 tcp 40 [0 0 0 0] ------- [4:0 0:3 32 0] [0 0] 0 0
s 1.000000000 _5_ AGT  --- 7 tcp 40 [0 0 0 0] ------- [5:0 0:4 32 0] [0 0] 0 0
r 1.000000000 _5_ RTR  --- 7 tcp 40 [0 0 0 0] ------- [5:0 0:4 32 0] [0 0] 0 0
s 1.281817143 _4_ RTR  --- 8 message 32 [0 0 0 0] ------- [4:255 -1:255 32 0] 
s 1.282332143 _4_ MAC  --- 8 message 90 [0 ffffffff 4 800] ------- [4:255 -1:255 32 0] 
r 1.283052833 _0_ MAC  --- 8 message 32 [0 ffffffff 4 800] ------- [4:255 -1:255 32 0] 
r 1.283077833 _0_ RTR  --- 8 message 32 [0 ffffffff 4 800] ------- [4:255 -1:255 32 0] 
s 1.606931580 _0_ RTR  --- 9 message 32 [0 0 0 0] ------- [0:255 -1:255 32 0] 
s 1.607546580 _0_ MAC  --- 9 message 90 [0 ffffffff 0 800] ------- [0:255 -1:255 32 0] 
r 1.608267236 _2_ MAC  --- 9 message 32 [0 ffffffff 0 800] ------- [0:255 -1:255 32 0] 
r 1.608267257 _1_ MAC  --- 9 message 32 [0 ffffffff 0 800] ------- [0:255 -1:255 32 0] 
r 1.608267270 _4_ MAC  --- 9 message 32 [0 ffffffff 0 800] ------- [0:255 -1:255 32 0] 
r 1.608267403 _3_ MAC  --- 9 message 32 [0 ffffffff 0 800] ------- [0:255 -1:255 32 0] 
r 1.608267412 _5_ MAC  --- 9 message 32 [0 ffffffff 0 800] ------- [0:255 -1:255 32 0] 
r 1.608292236 _2_ RTR  --- 9 message 32 [0 ffffffff 0 800] ------- [0:255 -1:255 32 0] 
s 1.608292236 _2_ RTR  --- 4 tcp 80 [0 0 0 0] ------- [2:0 0:1 32 0] [0 0] 0 0
r 1.608292257 _1_ RTR  --- 9 message 32 [0 ffffffff 0 800] ------- [0:255 -1:255 32 0] 
s 1.608292257 _1_ RTR  --- 3 tcp 80 [0 0 0 0] ------- [1:0 0:0 32 0] [0 0] 0 0
r 1.608292270 _4_ RTR  --- 9 message 32 [0 ffffffff 0 800] ------- [0:255 -1:255 32 0] 
s 1.608292270 _4_ RTR  --- 6 tcp 80 [0 0 0 0] ------- [4:0 0:3 32 0] [0 0] 0 0
r 1.608292403 _3_ RTR  --- 9 message 32 [0 ffffffff 0 800] ------- [0:255 -1:255 32 0] 
s 1.608292403 _3_ RTR  --- 5 tcp 80 [0 0 0 0] ------- [3:0 0:2 32 0] [0 0] 0 0
r 1.608292412 _5_ RTR  --- 9 message 32 [0 ffffffff 0 800] ------- [0:255 -1:255 32 0] 
s 1.608292412 _5_ RTR  --- 7 tcp 80 [0 0 0 0] ------- [5:0 0:4 32 0] [0 0] 0 0
s 1.608387236 _2_ MAC  --- 0 ARP 86 [0 ffffffff 2 806] ------- [REQUEST 2/2 0/0]
r 1.609075892 _0_ MAC  --- 0 ARP 28 [0 ffffffff 2 806] ------- [REQUEST 2/2 0/0]
s 1.609425892 _0_ MAC  --- 0 RTS 44 [52e 2 0 0] 
r 1.609778548 _2_ MAC  --- 0 RTS 44 [52e 2 0 0] 
s 1.609788548 _2_ MAC  --- 0 CTS 38 [3f4 0 0 0] 
r 1.610093204 _0_ MAC  --- 0 CTS 38 [3f4 0 0 0] 
s 1.610103204 _0_ MAC  --- 0 ARP 86 [13a 2 0 806] ------- [REPLY 0/0 2/2]
r 1.610791860 _2_ MAC  --- 0 ARP 28 [13a 2 0 806] ------- [REPLY 0/0 2/2]
s 1.610801860 _2_ MAC  --- 0 ACK 38 [0 0 0 0] 
r 1.611106516 _0_ MAC  --- 0 ACK 38 [0 0 0 0] 
s 1.611355860 _2_ MAC  --- 0 RTS 44 [6ce 0 2 0] 
r 1.611708516 _0_ MAC  --- 0 RTS 44 [6ce 0 2 0] 
s 1.611718516 _0_ MAC  --- 0 CTS 38 [594 2 0 0] 
r 1.612023172 _2_ MAC  --- 0 CTS 38 [594 2 0 0] 
s 1.612033172 _2_ MAC  --- 4 tcp 138 [13a 0 2 800] ------- [2:0 0:1 32 0] [0 0] 0 0
r 1.613137828 _0_ MAC  --- 4 tcp 80 [13a 0 2 800] ------- [2:0 0:1 32 0] [0 0] 1 0
s 1.613147828 _0_ MAC  --- 0 ACK 38 [0 2 0 0] 
r 1.613162828 _0_ AGT  --- 4 tcp 80 [13a 0 2 800] ------- [2:0 0:1 32 0] [0 0] 1 0
s 1.613162828 _0_ AGT  --- 10 ack 40 [0 0 0 0] ------- [0:1 2:0 32 0] [0 0] 0 0
r 1.613162828 _0_ RTR  --- 10 ack 40 [0 0 0 0] ------- [0:1 2:0 32 0] [0 0] 0 0
r 1.613452485 _2_ MAC  --- 0 ACK 38 [0 2 0 0] 
s 1.613592607 _5_ MAC  --- 0 ARP 86 [0 ffffffff 5 806] ------- [REQUEST 5/5 0/0]
r 1.614281439 _0_ MAC  --- 0 ARP 28 [0 ffffffff 5 806] ------- [REQUEST 5/5 0/0]
s 1.614536439 _0_ MAC  --- 0 RTS 44 [52e 5 0 0] 
r 1.614889271 _5_ MAC  --- 0 RTS 44 [52e 5 0 0] 
s 1.614899271 _5_ MAC  --- 0 CTS 38 [3f4 0 0 0] 
r 1.615204103 _0_ MAC  --- 0 CTS 38 [3f4 0 0 0] 
s 1.615214103 _0_ MAC  --- 0 ARP 86 [13a 5 0 806] ------- [REPLY 0/0 5/5]
r 1.615902935 _5_ MAC  --- 0 ARP 28 [13a 5 0 806] ------- [REPLY 0/0 5/5]
s 1.615912935 _5_ MAC  --- 0 ACK 38 [0 0 0 0] 
r 1.616217767 _0_ MAC  --- 0 ACK 38 [0 0 0 0] 
s 1.616286935 _5_ MAC  --- 0 RTS 44 [6ce 0 5 0] 
r 1.616639767 _0_ MAC  --- 0 RTS 44 [6ce 0 5 0] 
s 1.616649767 _0_ MAC  --- 0 CTS 38 [594 5 0 0] 
r 1.616954599 _5_ MAC  --- 0 CTS 38 [594 5 0 0] 
s 1.616964599 _5_ MAC  --- 7 tcp 138 [13a 0 5 800] ------- [5:0 0:4 32 0] [0 0] 0 0
r 1.618069431 _0_ MAC  --- 7 tcp 80 [13a 0 5 800] ------- [5:0 0:4 32 0] [0 0] 1 0
s 1.618079431 _0_ MAC  --- 0 ACK 38 [0 5 0 0] 
r 1.618094431 _0_ AGT  --- 7 tcp 80 [13a 0 5 800] ------- [5:0 0:4 32 0] [0 0] 1 0
s 1.618094431 _0_ AGT  --- 11 ack 40 [0 0 0 0] ------- [0:4 5:0 32 0] [0 0] 0 0
r 1.618094431 _0_ RTR  --- 11 ack 40 [0 0 0 0] ------- [0:4 5:0 32 0] [0 0] 0 0
s 1.618094431 _0_ RTR  --- 11 ack 60 [0 0 0 0] ------- [0:4 5:0 32 5] [0 0] 0 0
r 1.618384263 _5_ MAC  --- 0 ACK 38 [0 5 0 0] 
s 1.618544118 _3_ MAC  --- 0 ARP 86 [0 ffffffff 3 806] ------- [REQUEST 3/3 0/0]
r 1.619232941 _0_ MAC  --- 0 ARP 28 [0 ffffffff 3 806] ------- [REQUEST 3/3 0/0]
s 1.619762941 _0_ MAC  --- 0 RTS 44 [62e 5 0 0] 
r 1.620115773 _5_ MAC  --- 0 RTS 44 [62e 5 0 0] 
s 1.620125773 _5_ MAC  --- 0 CTS 38 [4f4 0 0 0] 
r 1.620430605 _0_ MAC  --- 0 CTS 38 [4f4 0 0 0] 
s 1.620440605 _0_ MAC  --- 11 ack 118 [13a 5 0 800] ------- [0:4 5:0 32 5] [0 0] 0 0
r 1.621385437 _5_ MAC  --- 11 ack 60 [13a 5 0 800] ------- [0:4 5:0 32 5] [0 0] 1 0
s 1.621395437 _5_ MAC  --- 0 ACK 38 [0 0 0 0] 
r 1.621410437 _5_ AGT  --- 11 ack 60 [13a 5 0 800] ------- [0:4 5:0 32 5] [0 0] 1 0
s 1.621410437 _5_ AGT  --- 12 tcp 1540 [0 0 0 0] ------- [5:0 0:4 32 0] [1 0] 0 0
r 1.621410437 _5_ RTR  --- 12 tcp 1540 [0 0 0 0] ------- [5:0 0:4 32 0] [1 0] 0 0
s 1.621410437 _5_ RTR  --- 12 tcp 1560 [0 0 0 0] ------- [5:0 0:4 32 0] [1 0] 0 0
s 1.621410437 _5_ AGT  --- 13 tcp 1540 [0 0 0 0] ------- [5:0 0:4 32 0] [2 0] 0 0
r 1.621410437 _5_ RTR  --- 13 tcp 1540 [0 0 0 0] ------- [5:0 0:4 32 0] [2 0] 0 0
s 1.621410437 _5_ RTR  --- 13 tcp 1560 [0 0 0 0] ------- [5:0 0:4 32 0] [2 0] 0 0
r 1.621700269 _0_ MAC  --- 0 ACK 38 [0 0 0 0] 
s 1.622089437 _5_ MAC  --- 0 RTS 44 [350e 0 5 0] 
r 1.622442269 _0_ MAC  --- 0 RTS 44 [350e 0 5 0] 
s 1.622452269 _0_ MAC  --- 0 CTS 38 [33d4 5 0 0] 
r 1.622757101 _5_ MAC  --- 0 CTS 38 [33d4 5 0 0] 
s 1.622767101 _5_ MAC  --- 12 tcp 1618 [13a 0 5 800] ------- [5:0 0:4 32 0] [1 0] 0 0
s 1.634183138 _2_ RTR  --- 14 message 44 [0 0 0 0] ------- [2:255 -1:255 32 0] 
r 1.635711933 _0_ MAC  --- 12 tcp 1560 [13a 0 5 800] ------- [5:0 0:4 32 0] [1 0] 1 0
s 1.635721933 _0_ MAC  --- 0 ACK 38 [0 5 0 0] 
r 1.635736933 _0_ AGT  --- 12 tcp 1560 [13a 0 5 800] ------- [5:0 0:4 32 0] [1 0] 1 0
s 1.635736933 _0_ AGT  --- 15 ack 40 [0 0 0 0] ------- [0:4 5:0 32 0] [1 0] 0 0
r 1.635736933 _0_ RTR  --- 15 ack 40 [0 0 0 0] ------- [0:4 5:0 32 0] [1 0] 0 0
s 1.635736933 _0_ RTR  --- 15 ack 60 [0 0 0 0] ------- [0:4 5:0 32 5] [1 0] 0 0
r 1.636026765 _5_ MAC  --- 0 ACK 38 [0 5 0 0] 
s 1.636185954 _1_ MAC  --- 0 ARP 86 [0 ffffffff 1 806] ------- [REQUEST 1/1 0/0]
r 1.636874631 _0_ MAC  --- 0 ARP 28 [0 ffffffff 1 806] ------- [REQUEST 1/1 0/0]
s 1.637004631 _0_ MAC  --- 0 RTS 44 [52e 3 0 0] 
r 1.637357454 _3_ MAC  --- 0 RTS 44 [52e 3 0 0] 
s 1.637367454 _3_ MAC  --- 0 CTS 38 [3f4 0 0 0] 
r 1.637672277 _0_ MAC  --- 0 CTS 38 [3f4 0 0 0] 
s 1.637682277 _0_ MAC  --- 0 ARP 86 [13a 3 0 806] ------- [REPLY 0/0 3/3]
r 1.638371100 _3_ MAC  --- 0 ARP 28 [13a 3 0 806] ------- [REPLY 0/0 3/3]
s 1.638381100 _3_ MAC  --- 0 ACK 38 [0 0 0 0] 
r 1.638685922 _0_ MAC  --- 0 ACK 38 [0 0 0 0] 
s 1.638735100 _3_ MAC  --- 0 RTS 44 [6ce 0 3 0] 
r 1.639087922 _0_ MAC  --- 0 RTS 44 [6ce 0 3 0] 
s 1.639097922 _0_ MAC  --- 0 CTS 38 [594 3 0 0] 
r 1.639402745 _3_ MAC  --- 0 CTS 38 [594 3 0 0] 
s 1.639412745 _3_ MAC  --- 5 tcp 138 [13a 0 3 800] ------- [3:0 0:2 32 0] [0 0] 0 0
r 1.640517568 _0_ MAC  --- 5 tcp 80 [13a 0 3 800] ------- [3:0 0:2 32 0] [0 0] 1 0
s 1.640527568 _0_ MAC  --- 0 ACK 38 [0 3 0 0] 
r 1.640542568 _0_ AGT  --- 5 tcp 80 [13a 0 3 800] ------- [3:0 0:2 32 0] [0 0] 1 0
s 1.640542568 _0_ AGT  --- 16 ack 40 [0 0 0 0] ------- [0:2 3:0 32 0] [0 0] 0 0
r 1.640542568 _0_ RTR  --- 16 ack 40 [0 0 0 0] ------- [0:2 3:0 32 0] [0 0] 0 0
s 1.640542568 _0_ RTR  --- 16 ack 60 [0 0 0 0] ------- [0:2 3:0 32 3] [0 0] 0 0
r 1.640832391 _3_ MAC  --- 0 ACK 38 [0 3 0 0] 
s 1.640991586 _4_ MAC  --- 0 ARP 86 [0 ffffffff 4 806] ------- [REQUEST 4/4 0/0]
r 1.641680276 _0_ MAC  --- 0 ARP 28 [0 ffffffff 4 806] ------- [REQUEST 4/4 0/0]
s 1.641850276 _0_ MAC  --- 0 RTS 44 [62e 5 0 0] 
r 1.642203108 _5_ MAC  --- 0 RTS 44 [62e 5 0 0] 
s 1.642213108 _5_ MAC  --- 0 CTS 38 [4f4 0 0 0] 
r 1.642517940 _0_ MAC  --- 0 CTS 38 [4f4 0 0 0] 
s 1.642527940 _0_ MAC  --- 15 ack 118 [13a 5 0 800] ------- [0:4 5:0 32 5] [1 0] 0 0
r 1.643472772 _5_ MAC  --- 15 ack 60 [13a 5 0 800] ------- [0:4 5:0 32 5] [1 0] 1 0
s 1.643482772 _5_ MAC  --- 0 ACK 38 [0 0 0 0] 
r 1.643497772 _5_ AGT  --- 15 ack 60 [13a 5 0 800] ------- [0:4 5:0 32 5] [1 0] 1 0
s 1.643497772 _5_ AGT  --- 17 tcp 1540 [0 0 0 0] ------- [5:0 0:4 32 0] [3 0] 0 0
r 1.643497772 _5_ RTR  --- 17 tcp 1540 [0 0 0 0] ------- [5:0 0:4 32 0] [3 0] 0 0
s 1.643497772 _5_ RTR  --- 17 tcp 1560 [0 0 0 0] ------- [5:0 0:4 32 0] [3 0] 0 0
s 1.643497772 _5_ AGT  --- 18 tcp 1540 [0 0 0 0] ------- [5:0 0:4 32 0] [4 0] 0 0
r 1.643497772 _5_ RTR  --- 18 tcp 1540 [0 0 0 0] ------- [5:0 0:4 32 0] [4 0] 0 0
s 1.643497772 _5_ RTR  --- 18 tcp 1560 [0 0 0 0] ------- [5:0 0:4 32 0] [4 0] 0 0
r 1.643787604 _0_ MAC  --- 0 ACK 38 [0 0 0 0] 
s 1.643956772 _5_ MAC  --- 0 RTS 44 [350e 0 5 0] 
r 1.644309604 _0_ MAC  --- 0 RTS 44 [350e 0 5 0] 
s 1.644319604 _0_ MAC  --- 0 CTS 38 [33d4 5 0 0] 
r 1.644624436 _5_ MAC  --- 0 CTS 38 [33d4 5 0 0] 
s 1.644634436 _5_ MAC  --- 13 tcp 1618 [13a 0 5 800] ------- [5:0 0:4 32 0] [2 0] 0 0
r 1.657579268 _0_ MAC  --- 13 tcp 1560 [13a 0 5 800] ------- [5:0 0:4 32 0] [2 0] 1 0
s 1.657589268 _0_ MAC  --- 0 ACK 38 [0 5 0 0] 
r 1.657604268 _0_ AGT  --- 13 tcp 1560 [13a 0 5 800] ------- [5:0 0:4 32 0] [2 0] 1 0
s 1.657604268 _0_ AGT  --- 19 ack 40 [0 0 0 0] ------- [0:4 5:0 32 0] [2 0] 0 0
r 1.657604268 _0_ RTR  --- 19 ack 40 [0 0 0 0] ------- [0:4 5:0 32 0] [2 0] 0 0
s 1.657604268 _0_ RTR  --- 19 ack 60 [0 0 0 0] ------- [0:4 5:0 32 5] [2 0] 0 0
r 1.657894100 _5_ MAC  --- 0 ACK 38 [0 5 0 0] 
s 1.658024100 _5_ MAC  --- 0 RTS 44 [350e 0 5 0] 
r 1.658376932 _0_ MAC  --- 0 RTS 44 [350e 0 5 0] 
s 1.658386932 _0_ MAC  --- 0 CTS 38 [33d4 5 0 0] 
r 1.658691764 _5_ MAC  --- 0 CTS 38 [33d4 5 0 0] 
s 1.658701764 _5_ MAC  --- 17 tcp 1618 [13a 0 5 800] ------- [5:0 0:4 32 0] [3 0] 0 0
r 1.671646596 _0_ MAC  --- 17 tcp 1560 [13a 0 5 800] ------- [5:0 0:4 32 0] [3 0] 1 0
s 1.671656596 _0_ MAC  --- 0 ACK 38 [0 5 0 0] 
r 1.671671596 _0_ AGT  --- 17 tcp 1560 [13a 0 5 800] ------- [5:0 0:4 32 0] [3 0] 1 0
s 1.671671596 _0_ AGT  --- 20 ack 40 [0 0 0 0] ------- [0:4 5:0 32 0] [3 0] 0 0
r 1.671671596 _0_ RTR  --- 20 ack 40 [0 0 0 0] ------- [0:4 5:0 32 0] [3 0] 0 0
s 1.671671596 _0_ RTR  --- 20 ack 60 [0 0 0 0] ------- [0:4 5:0 32 5] [3 0] 0 0
r 1.671961428 _5_ MAC  --- 0 ACK 38 [0 5 0 0] 
s 1.672050596 _0_ MAC  --- 0 RTS 44 [52e 1 0 0] 
r 1.672403273 _1_ MAC  --- 0 RTS 44 [52e 1 0 0] 
s 1.672413273 _1_ MAC  --- 0 CTS 38 [3f4 0 0 0] 
r 1.672717951 _0_ MAC  --- 0 CTS 38 [3f4 0 0 0] 
s 1.672727951 _0_ MAC  --- 0 ARP 86 [13a 1 0 806] ------- [REPLY 0/0 1/1]
r 1.673416628 _1_ MAC  --- 0 ARP 28 [13a 1 0 806] ------- [REPLY 0/0 1/1]
s 1.673426628 _1_ MAC  --- 0 ACK 38 [0 0 0 0] 
r 1.673731306 _0_ MAC  --- 0 ACK 38 [0 0 0 0] 
s 1.673781306 _0_ MAC  --- 0 RTS 44 [62e 3 0 0] 
r 1.674134129 _3_ MAC  --- 0 RTS 44 [62e 3 0 0] 
s 1.674144129 _3_ MAC  --- 0 CTS 38 [4f4 0 0 0] 
r 1.674448951 _0_ MAC  --- 0 CTS 38 [4f4 0 0 0] 
s 1.674458951 _0_ MAC  --- 16 ack 118 [13a 3 0 800] ------- [0:2 3:0 32 3] [0 0] 0 0
r 1.675403774 _3_ MAC  --- 16 ack 60 [13a 3 0 800] ------- [0:2 3:0 32 3] [0 0] 1 0
s 1.675413774 _3_ MAC  --- 0 ACK 38 [0 0 0 0] 
r 1.675428774 _3_ AGT  --- 16 ack 60 [13a 3 0 800] ------- [0:2 3:0 32 3] [0 0] 1 0
s 1.675428774 _3_ AGT  --- 21 tcp 1540 [0 0 0 0] ------- [3:0 0:2 32 0] [1 0] 0 0
r 1.675428774 _3_ RTR  --- 21 tcp 1540 [0 0 0 0] ------- [3:0 0:2 32 0] [1 0] 0 0
s 1.675428774 _3_ RTR  --- 21 tcp 1560 [0 0 0 0] ------- [3:0 0:2 32 0] [1 0] 0 0
s 1.675428774 _3_ AGT  --- 22 tcp 1540 [0 0 0 0] ------- [3:0 0:2 32 0] [2 0] 0 0
r 1.675428774 _3_ RTR  --- 22 tcp 1540 [0 0 0 0] ------- [3:0 0:2 32 0] [2 0] 0 0
s 1.675428774 _3_ RTR  --- 22 tcp 1560 [0 0 0 0] ------- [3:0 0:2 32 0] [2 0] 0 0
r 1.675718597 _0_ MAC  --- 0 ACK 38 [0 0 0 0] 
s 1.675967774 _3_ MAC  --- 0 RTS 44 [350e 0 3 0] 
r 1.676320597 _0_ MAC  --- 0 RTS 44 [350e 0 3 0] 
s 1.676330597 _0_ MAC  --- 0 CTS 38 [33d4 3 0 0] 
r 1.676635420 _3_ MAC  --- 0 CTS 38 [33d4 3 0 0] 
s 1.676645420 _3_ MAC  --- 21 tcp 1618 [13a 0 3 800] ------- [3:0 0:2 32 0] [1 0] 0 0
r 1.689590243 _0_ MAC  --- 21 tcp 1560 [13a 0 3 800] ------- [3:0 0:2 32 0] [1 0] 1 0
s 1.689600243 _0_ MAC  --- 0 ACK 38 [0 3 0 0] 
r 1.689615243 _0_ AGT  --- 21 tcp 1560 [13a 0 3 800] ------- [3:0 0:2 32 0] [1 0] 1 0
s 1.689615243 _0_ AGT  --- 23 ack 40 [0 0 0 0] ------- [0:2 3:0 32 0] [1 0] 0 0
r 1.689615243 _0_ RTR  --- 23 ack 40 [0 0 0 0] ------- [0:2 3:0 32 0] [1 0] 0 0
s 1.689615243 _0_ RTR  --- 23 ack 60 [0 0 0 0] ------- [0:2 3:0 32 3] [1 0] 0 0
r 1.689905065 _3_ MAC  --- 0 ACK 38 [0 3 0 0] 
s 1.690014243 _0_ MAC  --- 0 RTS 44 [52e 4 0 0] 
r 1.690366933 _4_ MAC  --- 0 RTS 44 [52e 4 0 0] 
s 1.690376933 _4_ MAC  --- 0 CTS 38 [3f4 0 0 0] 
r 1.690681623 _0_ MAC  --- 0 CTS 38 [3f4 0 0 0] 
s 1.690691623 _0_ MAC  --- 0 ARP 86 [13a 4 0 806] ------- [REPLY 0/0 4/4]
r 1.691380313 _4_ MAC  --- 0 ARP 28 [13a 4 0 806] ------- [REPLY 0/0 4/4]
s 1.691390313 _4_ MAC  --- 0 ACK 38 [0 0 0 0] 
r 1.691695003 _0_ MAC  --- 0 ACK 38 [0 0 0 0] 
s 1.691764313 _4_ MAC  --- 0 RTS 44 [6ce 0 4 0] 
r 1.692117003 _0_ MAC  --- 0 RTS 44 [6ce 0 4 0] 
s 1.692127003 _0_ MAC  --- 0 CTS 38 [594 4 0 0] 
r 1.692431693 _4_ MAC  --- 0 CTS 38 [594 4 0 0] 
s 1.692441693 _4_ MAC  --- 6 tcp 138 [13a 0 4 800] ------- [4:0 0:3 32 0] [0 0] 0 0
r 1.693546383 _0_ MAC  --- 6 tcp 80 [13a 0 4 800] ------- [4:0 0:3 32 0] [0 0] 1 0
s 1.693556383 _0_ MAC  --- 0 ACK 38 [0 4 0 0] 
r 1.693571383 _0_ AGT  --- 6 tcp 80 [13a 0 4 800] ------- [4:0 0:3 32 0] [0 0] 1 0
s 1.693571383 _0_ AGT  --- 24 ack 40 [0 0 0 0] ------- [0:3 4:0 32 0] [0 0] 0 0
r 1.693571383 _0_ RTR  --- 24 ack 40 [0 0 0 0] ------- [0:3 4:0 32 0] [0 0] 0 0
s 1.693571383 _0_ RTR  --- 24 ack 60 [0 0 0 0] ------- [0:3 4:0 32 4] [0 0] 0 0
r 1.693861073 _4_ MAC  --- 0 ACK 38 [0 4 0 0] 
s 1.694100975 _2_ MAC  --- 14 message 102 [0 ffffffff 2 800] ------- [2:255 -1:255 32 0] 
r 1.694917631 _0_ MAC  --- 14 message 44 [0 ffffffff 2 800] ------- [2:255 -1:255 32 0] 
r 1.694942631 _0_ RTR  --- 14 message 44 [0 ffffffff 2 800] ------- [2:255 -1:255 32 0] 
s 1.694942631 _0_ RTR  --- 10 ack 80 [0 0 0 0] ------- [0:1 2:0 32 2] [0 0] 0 0
s 1.695067631 _0_ MAC  --- 0 RTS 44 [62e 5 0 0] 
r 1.695420463 _5_ MAC  --- 0 RTS 44 [62e 5 0 0] 
s 1.695430463 _5_ MAC  --- 0 CTS 38 [4f4 0 0 0] 
r 1.695735295 _0_ MAC  --- 0 CTS 38 [4f4 0 0 0] 
s 1.695745295 _0_ MAC  --- 19 ack 118 [13a 5 0 800] ------- [0:4 5:0 32 5] [2 0] 0 0
r 1.696690127 _5_ MAC  --- 19 ack 60 [13a 5 0 800] ------- [0:4 5:0 32 5] [2 0] 1 0
s 1.696700127 _5_ MAC  --- 0 ACK 38 [0 0 0 0] 
r 1.696715127 _5_ AGT  --- 19 ack 60 [13a 5 0 800] ------- [0:4 5:0 32 5] [2 0] 1 0
s 1.696715127 _5_ AGT  --- 25 tcp 1540 [0 0 0 0] ------- [5:0 0:4 32 0] [5 0] 0 0
r 1.696715127 _5_ RTR  --- 25 tcp 1540 [0 0 0 0] ------- [5:0 0:4 32 0] [5 0] 0 0
s 1.696715127 _5_ RTR  --- 25 tcp 1560 [0 0 0 0] ------- [5:0 0:4 32 0] [5 0] 0 0
s 1.696715127 _5_ AGT  --- 26 tcp 1540 [0 0 0 0] ------- [5:0 0:4 32 0] [6 0] 0 0
r 1.696715127 _5_ RTR  --- 26 tcp 1540 [0 0 0 0] ------- [5:0 0:4 32 0] [6 0] 0 0
s 1.696715127 _5_ RTR  --- 26 tcp 1560 [0 0 0 0] ------- [5:0 0:4 32 0] [6 0] 0 0
r 1.697004959 _0_ MAC  --- 0 ACK 38 [0 0 0 0] 
s 1.697194127 _5_ MAC  --- 0 RTS 44 [350e 0 5 0] 
r 1.697546959 _0_ MAC  --- 0 RTS 44 [350e 0 5 0] 
s 1.697556959 _0_ MAC  --- 0 CTS 38 [33d4 5 0 0] 
r 1.697861792 _5_ MAC  --- 0 CTS 38 [33d4 5 0 0] 
s 1.697871792 _5_ MAC  --- 18 tcp 1618 [13a 0 5 800] ------- [5:0 0:4 32 0] [4 0] 0 0
r 1.710816624 _0_ MAC  --- 18 tcp 1560 [13a 0 5 800] ------- [5:0 0:4 32 0] [4 0] 1 0
s 1.710826624 _0_ MAC  --- 0 ACK 38 [0 5 0 0] 
r 1.710841624 _0_ AGT  --- 18 tcp 1560 [13a 0 5 800] ------- [5:0 0:4 32 0] [4 0] 1 0
s 1.710841624 _0_ AGT  --- 27 ack 40 [0 0 0 0] ------- [0:4 5:0 32 0] [4 0] 0 0
r 1.710841624 _0_ RTR  --- 27 ack 40 [0 0 0 0] ------- [0:4 5:0 32 0] [4 0] 0 0
s 1.710841624 _0_ RTR  --- 27 ack 60 [0 0 0 0] ------- [0:4 5:0 32 5] [4 0] 0 0
r 1.711131456 _5_ MAC  --- 0 ACK 38 [0 5 0 0] 
s 1.711300624 _0_ MAC  --- 0 RTS 44 [62e 5 0 0] 
s 1.711301456 _5_ MAC  --- 0 RTS 44 [350e 0 5 0] 
s 1.712108288 _0_ MAC  --- 0 RTS 44 [62e 5 0 0] 
r 1.712461120 _5_ MAC  --- 0 RTS 44 [62e 5 0 0] 
s 1.712471120 _5_ MAC  --- 0 CTS 38 [4f4 0 0 0] 
r 1.712775952 _0_ MAC  --- 0 CTS 38 [4f4 0 0 0] 
s 1.712785952 _0_ MAC  --- 20 ack 118 [13a 5 0 800] ------- [0:4 5:0 32 5] [3 0] 0 0
r 1.713730784 _5_ MAC  --- 20 ack 60 [13a 5 0 800] ------- [0:4 5:0 32 5] [3 0] 1 0
s 1.713740784 _5_ MAC  --- 0 ACK 38 [0 0 0 0] 
r 1.713755784 _5_ AGT  --- 20 ack 60 [13a 5 0 800] ------- [0:4 5:0 32 5] [3 0] 1 0
s 1.713755784 _5_ AGT  --- 28 tcp 1540 [0 0 0 0] ------- [5:0 0:4 32 0] [7 0] 0 0
r 1.713755784 _5_ RTR  --- 28 tcp 1540 [0 0 0 0] ------- [5:0 0:4 32 0] [7 0] 0 0
s 1.713755784 _5_ RTR  --- 28 tcp 1560 [0 0 0 0] ------- [5:0 0:4 32 0] [7 0] 0 0
s 1.713755784 _5_ AGT  --- 29 tcp 1540 [0 0 0 0] ------- [5:0 0:4 32 0] [8 0] 0 0
r 1.713755784 _5_ RTR  --- 29 tcp 1540 [0 0 0 0] ------- [5:0 0:4 32 0] [8 0] 0 0
s 1.713755784 _5_ RTR  --- 29 tcp 1560 [0 0 0 0] ------- [5:0 0:4 32 0] [8 0] 0 0
r 1.714045616 _0_ MAC  --- 0 ACK 38 [0 0 0 0] 
s 1.714514784 _5_ MAC  --- 0 RTS 44 [350e 0 5 0] 
r 1.714867616 _0_ MAC  --- 0 RTS 44 [350e 0 5 0] 
s 1.714877616 _0_ MAC  --- 0 CTS 38 [33d4 5 0 0] 
r 1.715182448 _5_ MAC  --- 0 CTS 38 [33d4 5 0 0] 
s 1.715192448 _5_ MAC  --- 25 tcp 1618 [13a 0 5 800] ------- [5:0 0:4 32 0] [5 0] 0 0
r 1.728137280 _0_ MAC  --- 25 tcp 1560 [13a 0 5 800] ------- [5:0 0:4 32 0] [5 0] 1 0
s 1.728147280 _0_ MAC  --- 0 ACK 38 [0 5 0 0] 
r 1.728162280 _0_ AGT  --- 25 tcp 1560 [13a 0 5 800] ------- [5:0 0:4 32 0] [5 0] 1 0
s 1.728162280 _0_ AGT  --- 30 ack 40 [0 0 0 0] ------- [0:4 5:0 32 0] [5 0] 0 0
r 1.728162280 _0_ RTR  --- 30 ack 40 [0 0 0 0] ------- [0:4 5:0 32 0] [5 0] 0 0
s 1.728162280 _0_ RTR  --- 30 ack 60 [0 0 0 0] ------- [0:4 5:0 32 5] [5 0] 0 0
r 1.728452112 _5_ MAC  --- 0 ACK 38 [0 5 0 0] 
s 1.728561280 _0_ MAC  --- 0 RTS 44 [62e 3 0 0] 
r 1.728914103 _3_ MAC  --- 0 RTS 44 [62e 3 0 0] 
s 1.728924103 _3_ MAC  --- 0 CTS 38 [4f4 0 0 0] 
r 1.729228925 _0_ MAC  --- 0 CTS 38 [4f4 0 0 0] 
s 1.729238925 _0_ MAC  --- 23 ack 118 [13a 3 0 800] ------- [0:2 3:0 32 3] [1 0] 0 0
r 1.730183748 _3_ MAC  --- 23 ack 60 [13a 3 0 800] ------- [0:2 3:0 32 3] [1 0] 1 0
s 1.730193748 _3_ MAC  --- 0 ACK 38 [0 0 0 0] 
r 1.730208748 _3_ AGT  --- 23 ack 60 [13a 3 0 800] ------- [0:2 3:0 32 3] [1 0] 1 0
s 1.730208748 _3_ AGT  --- 31 tcp 1540 [0 0 0 0] ------- [3:0 0:2 32 0] [3 0] 0 0
r 1.730208748 _3_ RTR  --- 31 tcp 1540 [0 0 0 0] ------- [3:0 0:2 32 0] [3 0] 0 0
s 1.730208748 _3_ RTR  --- 31 tcp 1560 [0 0 0 0] ------- [3:0 0:2 32 0] [3 0] 0 0
s 1.730208748 _3_ AGT  --- 32 tcp 1540 [0 0 0 0] ------- [3:0 0:2 32 0] [4 0] 0 0
r 1.730208748 _3_ RTR  --- 32 tcp 1540 [0 0 0 0] ------- [3:0 0:2 32 0] [4 0] 0 0
s 1.730208748 _3_ RTR  --- 32 tcp 1560 [0 0 0 0] ------- [3:0 0:2 32 0] [4 0] 0 0
r 1.730498571 _0_ MAC  --- 0 ACK 38 [0 0 0 0] 
s 1.730567748 _3_ MAC  --- 0 RTS 44 [350e 0 3 0] 
r 1.730920571 _0_ MAC  --- 0 RTS 44 [350e 0 3 0] 
s 1.730930571 _0_ MAC  --- 0 CTS 38 [33d4 3 0 0] 
r 1.731235394 _3_ MAC  --- 0 CTS 38 [33d4 3 0 0] 
s 1.731245394 _3_ MAC  --- 22 tcp 1618 [13a 0 3 800] ------- [3:0 0:2 32 0] [2 0] 0 0
r 1.744190216 _0_ MAC  --- 22 tcp 1560 [13a 0 3 800] ------- [3:0 0:2 32 0] [2 0] 1 0
s 1.744200216 _0_ MAC  --- 0 ACK 38 [0 3 0 0] 
r 1.744215216 _0_ AGT  --- 22 tcp 1560 [13a 0 3 800] ------- [3:0 0:2 32 0] [2 0] 1 0
s 1.744215216 _0_ AGT  --- 33 ack 40 [0 0 0 0] ------- [0:2 3:0 32 0] [2 0] 0 0
r 1.744215216 _0_ RTR  --- 33 ack 40 [0 0 0 0] ------- [0:2 3:0 32 0] [2 0] 0 0
s 1.744215216 _0_ RTR  --- 33 ack 60 [0 0 0 0] ------- [0:2 3:0 32 3] [2 0] 0 0
r 1.744505039 _3_ MAC  --- 0 ACK 38 [0 3 0 0] 
s 1.744644868 _1_ MAC  --- 0 RTS 44 [6ce 0 1 0] 
r 1.744997546 _0_ MAC  --- 0 RTS 44 [6ce 0 1 0] 
s 1.745007546 _0_ MAC  --- 0 CTS 38 [594 1 0 0] 
r 1.745312223 _1_ MAC  --- 0 CTS 38 [594 1 0 0] 
s 1.745322223 _1_ MAC  --- 3 tcp 138 [13a 0 1 800] ------- [1:0 0:0 32 0] [0 0] 0 0
r 1.746426901 _0_ MAC  --- 3 tcp 80 [13a 0 1 800] ------- [1:0 0:0 32 0] [0 0] 1 0
s 1.746436901 _0_ MAC  --- 0 ACK 38 [0 1 0 0] 
r 1.746451901 _0_ AGT  --- 3 tcp 80 [13a 0 1 800] ------- [1:0 0:0 32 0] [0 0] 1 0
s 1.746451901 _0_ AGT  --- 34 ack 40 [0 0 0 0] ------- [0:0 1:0 32 0] [0 0] 0 0
r 1.746451901 _0_ RTR  --- 34 ack 40 [0 0 0 0] ------- [0:0 1:0 32 0] [0 0] 0 0
s 1.746451901 _0_ RTR  --- 34 ack 60 [0 0 0 0] ------- [0:0 1:0 32 1] [0 0] 0 0
r 1.746741578 _1_ MAC  --- 0 ACK 38 [0 1 0 0] 
s 1.746861698 _3_ MAC  --- 0 RTS 44 [350e 0 3 0] 
r 1.747214521 _0_ MAC  --- 0 RTS 44 [350e 0 3 0] 
s 1.747224521 _0_ MAC  --- 0 CTS 38 [33d4 3 0 0] 
r 1.747529344 _3_ MAC  --- 0 CTS 38 [33d4 3 0 0] 
s 1.747539344 _3_ MAC  --- 31 tcp 1618 [13a 0 3 800] ------- [3:0 0:2 32 0] [3 0] 0 0
r 1.760484167 _0_ MAC  --- 31 tcp 1560 [13a 0 3 800] ------- [3:0 0:2 32 0] [3 0] 1 0
s 1.760494167 _0_ MAC  --- 0 ACK 38 [0 3 0 0] 
r 1.760509167 _0_ AGT  --- 31 tcp 1560 [13a 0 3 800] ------- [3:0 0:2 32 0] [3 0] 1 0
s 1.760509167 _0_ AGT  --- 35 ack 40 [0 0 0 0] ------- [0:2 3:0 32 0] [3 0] 0 0
r 1.760509167 _0_ RTR  --- 35 ack 40 [0 0 0 0] ------- [0:2 3:0 32 0] [3 0] 0 0
s 1.760509167 _0_ RTR  --- 35 ack 60 [0 0 0 0] ------- [0:2 3:0 32 3] [3 0] 0 0
r 1.760798989 _3_ MAC  --- 0 ACK 38 [0 3 0 0] 
s 1.760908167 _0_ MAC  --- 0 RTS 44 [62e 4 0 0] 
r 1.761260857 _4_ MAC  --- 0 RTS 44 [62e 4 0 0] 
s 1.761270857 _4_ MAC  --- 0 CTS 38 [4f4 0 0 0] 
r 1.761575547 _0_ MAC  --- 0 CTS 38 [4f4 0 0 0] 
s 1.761585547 _0_ MAC  --- 24 ack 118 [13a 4 0 800] ------- [0:3 4:0 32 4] [0 0] 0 0
r 1.762530237 _4_ MAC  --- 24 ack 60 [13a 4 0 800] ------- [0:3 4:0 32 4] [0 0] 1 0
s 1.762540237 _4_ MAC  --- 0 ACK 38 [0 0 0 0] 
r 1.762555237 _4_ AGT  --- 24 ack 60 [13a 4 0 800] ------- [0:3 4:0 32 4] [0 0] 1 0
s 1.762555237 _4_ AGT  --- 36 tcp 1540 [0 0 0 0] ------- [4:0 0:3 32 0] [1 0] 0 0
r 1.762555237 _4_ RTR  --- 36 tcp 1540 [0 0 0 0] ------- [4:0 0:3 32 0] [1 0] 0 0
s 1.762555237 _4_ RTR  --- 36 tcp 1560 [0 0 0 0] ------- [4:0 0:3 32 0] [1 0] 0 0
s 1.762555237 _4_ AGT  --- 37 tcp 1540 [0 0 0 0] ------- [4:0 0:3 32 0] [2 0] 0 0
r 1.762555237 _4_ RTR  --- 37 tcp 1540 [0 0 0 0] ------- [4:0 0:3 32 0] [2 0] 0 0
s 1.762555237 _4_ RTR  --- 37 tcp 1560 [0 0 0 0] ------- [4:0 0:3 32 0] [2 0] 0 0
r 1.762844927 _0_ MAC  --- 0 ACK 38 [0 0 0 0] 
s 1.762954927 _0_ MAC  --- 0 RTS 44 [6ce 2 0 0] 
r 1.763307583 _2_ MAC  --- 0 RTS 44 [6ce 2 0 0] 
s 1.763317583 _2_ MAC  --- 0 CTS 38 [594 0 0 0] 
r 1.763622239 _0_ MAC  --- 0 CTS 38 [594 0 0 0] 
s 1.763632239 _0_ MAC  --- 10 ack 138 [13a 2 0 800] ------- [0:1 2:0 32 2] [0 0] 0 0
r 1.764736895 _2_ MAC  --- 10 ack 80 [13a 2 0 800] ------- [0:1 2:0 32 2] [0 0] 1 0
s 1.764746895 _2_ MAC  --- 0 ACK 38 [0 0 0 0] 
r 1.764761895 _2_ AGT  --- 10 ack 80 [13a 2 0 800] ------- [0:1 2:0 32 2] [0 0] 1 0
s 1.764761895 _2_ AGT  --- 38 tcp 1540 [0 0 0 0] ------- [2:0 0:1 32 0] [1 0] 0 0
r 1.764761895 _2_ RTR  --- 38 tcp 1540 [0 0 0 0] ------- [2:0 0:1 32 0] [1 0] 0 0
s 1.764761895 _2_ RTR  --- 38 tcp 1560 [0 0 0 0] ------- [2:0 0:1 32 0] [1 0] 0 0
s 1.764761895 _2_ AGT  --- 39 tcp 1540 [0 0 0 0] ------- [2:0 0:1 32 0] [2 0] 0 0
r 1.764761895 _2_ RTR  --- 39 tcp 1540 [0 0 0 0] ------- [2:0 0:1 32 0] [2 0] 0 0
s 1.764761895 _2_ RTR  --- 39 tcp 1560 [0 0 0 0] ------- [2:0 0:1 32 0] [2 0] 0 0
r 1.765051551 _0_ MAC  --- 0 ACK 38 [0 0 0 0] 
s 1.765320895 _2_ MAC  --- 0 RTS 44 [350e 0 2 0] 
r 1.765673551 _0_ MAC  --- 0 RTS 44 [350e 0 2 0] 
s 1.765683551 _0_ MAC  --- 0 CTS 38 [33d4 2 0 0] 
r 1.765988207 _2_ MAC  --- 0 CTS 38 [33d4 2 0 0] 
s 1.765998207 _2_ MAC  --- 38 tcp 1618 [13a 0 2 800] ------- [2:0 0:1 32 0] [1 0] 0 0
r 1.778942863 _0_ MAC  --- 38 tcp 1560 [13a 0 2 800] ------- [2:0 0:1 32 0] [1 0] 1 0
s 1.778952863 _0_ MAC  --- 0 ACK 38 [0 2 0 0] 
r 1.778967863 _0_ AGT  --- 38 tcp 1560 [13a 0 2 800] ------- [2:0 0:1 32 0] [1 0] 1 0
s 1.778967863 _0_ AGT  --- 40 ack 40 [0 0 0 0] ------- [0:1 2:0 32 0] [1 0] 0 0
r 1.778967863 _0_ RTR  --- 40 ack 40 [0 0 0 0] ------- [0:1 2:0 32 0] [1 0] 0 0
s 1.778967863 _0_ RTR  --- 40 ack 60 [0 0 0 0] ------- [0:1 2:0 32 2] [1 0] 0 0
r 1.779257519 _2_ MAC  --- 0 ACK 38 [0 2 0 0] 
s 1.779377642 _5_ MAC  --- 0 RTS 44 [350e 0 5 0] 
r 1.779730474 _0_ MAC  --- 0 RTS 44 [350e 0 5 0] 
s 1.779740474 _0_ MAC  --- 0 CTS 38 [33d4 5 0 0] 
r 1.780045306 _5_ MAC  --- 0 CTS 38 [33d4 5 0 0] 
s 1.780055306 _5_ MAC  --- 26 tcp 1618 [13a 0 5 800] ------- [5:0 0:4 32 0] [6 0] 0 0
r 1.793000138 _0_ MAC  --- 26 tcp 1560 [13a 0 5 800] ------- [5:0 0:4 32 0] [6 0] 1 0
s 1.793010138 _0_ MAC  --- 0 ACK 38 [0 5 0 0] 
r 1.793025138 _0_ AGT  --- 26 tcp 1560 [13a 0 5 800] ------- [5:0 0:4 32 0] [6 0] 1 0
s 1.793025138 _0_ AGT  --- 41 ack 40 [0 0 0 0] ------- [0:4 5:0 32 0] [6 0] 0 0
r 1.793025138 _0_ RTR  --- 41 ack 40 [0 0 0 0] ------- [0:4 5:0 32 0] [6 0] 0 0
s 1.793025138 _0_ RTR  --- 41 ack 60 [0 0 0 0] ------- [0:4 5:0 32 5] [6 0] 0 0
r 1.793314970 _5_ MAC  --- 0 ACK 38 [0 5 0 0] 
s 1.793444138 _0_ MAC  --- 0 RTS 44 [62e 5 0 0] 
r 1.793796970 _5_ MAC  --- 0 RTS 44 [62e 5 0 0] 
s 1.793806970 _5_ MAC  --- 0 CTS 38 [4f4 0 0 0] 
r 1.794111802 _0_ MAC  --- 0 CTS 38 [4f4 0 0 0] 
s 1.794121802 _0_ MAC  --- 27 ack 118 [13a 5 0 800] ------- [0:4 5:0 32 5] [4 0] 0 0
r 1.795066634 _5_ MAC  --- 27 ack 60 [13a 5 0 800] ------- [0:4 5:0 32 5] [4 0] 1 0
s 1.795076634 _5_ MAC  --- 0 ACK 38 [0 0 0 0] 
r 1.795091634 _5_ AGT  --- 27 ack 60 [13a 5 0 800] ------- [0:4 5:0 32 5] [4 0] 1 0
s 1.795091634 _5_ AGT  --- 42 tcp 1540 [0 0 0 0] ------- [5:0 0:4 32 0] [9 0] 0 0
r 1.795091634 _5_ RTR  --- 42 tcp 1540 [0 0 0 0] ------- [5:0 0:4 32 0] [9 0] 0 0
s 1.795091634 _5_ RTR  --- 42 tcp 1560 [0 0 0 0] ------- [5:0 0:4 32 0] [9 0] 0 0
s 1.795091634 _5_ AGT  --- 43 tcp 1540 [0 0 0 0] ------- [5:0 0:4 32 0] [10 0] 0 0
r 1.795091634 _5_ RTR  --- 43 tcp 1540 [0 0 0 0] ------- [5:0 0:4 32 0] [10 0] 0 0
s 1.795091634 _5_ RTR  --- 43 tcp 1560 [0 0 0 0] ------- [5:0 0:4 32 0] [10 0] 0 0
r 1.795381466 _0_ MAC  --- 0 ACK 38 [0 0 0 0] 
s 1.795490634 _5_ MAC  --- 0 RTS 44 [350e 0 5 0] 
s 1.795491466 _0_ MAC  --- 0 RTS 44 [62e 5 0 0] 
s 1.796338298 _5_ MAC  --- 0 RTS 44 [350e 0 5 0] 
r 1.796691130 _0_ MAC  --- 0 RTS 44 [350e 0 5 0] 
s 1.796701130 _0_ MAC  --- 0 CTS 38 [33d4 5 0 0] 
r 1.797005962 _5_ MAC  --- 0 CTS 38 [33d4 5 0 0] 
s 1.797015962 _5_ MAC  --- 28 tcp 1618 [13a 0 5 800] ------- [5:0 0:4 32 0] [7 0] 0 0
r 1.809960794 _0_ MAC  --- 28 tcp 1560 [13a 0 5 800] ------- [5:0 0:4 32 0] [7 0] 1 0
s 1.809970794 _0_ MAC  --- 0 ACK 38 [0 5 0 0] 
r 1.809985794 _0_ AGT  --- 28 tcp 1560 [13a 0 5 800] ------- [5:0 0:4 32 0] [7 0] 1 0
s 1.809985794 _0_ AGT  --- 44 ack 40 [0 0 0 0] ------- [0:4 5:0 32 0] [7 0] 0 0
r 1.809985794 _0_ RTR  --- 44 ack 40 [0 0 0 0] ------- [0:4 5:0 32 0] [7 0] 0 0
s 1.809985794 _0_ RTR  --- 44 ack 60 [0 0 0 0] ------- [0:4 5:0 32 5] [7 0] 0 0
r 1.810275626 _5_ MAC  --- 0 ACK 38 [0 5 0 0] 
s 1.810394805 _4_ MAC  --- 0 RTS 44 [350e 0 4 0] 
r 1.810747495 _0_ MAC  --- 0 RTS 44 [350e 0 4 0] 
s 1.810757495 _0_ MAC  --- 0 CTS 38 [33d4 4 0 0] 
r 1.811062185 _4_ MAC  --- 0 CTS 38 [33d4 4 0 0] 
s 1.811072185 _4_ MAC  --- 36 tcp 1618 [13a 0 4 800] ------- [4:0 0:3 32 0] [1 0] 0 0
r 1.824016875 _0_ MAC  --- 36 tcp 1560 [13a 0 4 800] ------- [4:0 0:3 32 0] [1 0] 1 0
s 1.824026875 _0_ MAC  --- 0 ACK 38 [0 4 0 0] 
r 1.824041875 _0_ AGT  --- 36 tcp 1560 [13a 0 4 800] ------- [4:0 0:3 32 0] [1 0] 1 0
s 1.824041875 _0_ AGT  --- 45 ack 40 [0 0 0 0] ------- [0:3 4:0 32 0] [1 0] 0 0
r 1.824041875 _0_ RTR  --- 45 ack 40 [0 0 0 0] ------- [0:3 4:0 32 0] [1 0] 0 0
s 1.824041875 _0_ RTR  --- 45 ack 60 [0 0 0 0] ------- [0:3 4:0 32 4] [1 0] 0 0
r 1.824331565 _4_ MAC  --- 0 ACK 38 [0 4 0 0] 
s 1.824511026 _3_ MAC  --- 0 RTS 44 [350e 0 3 0] 
r 1.824863848 _0_ MAC  --- 0 RTS 44 [350e 0 3 0] 