n -t * -s 0  -x 665 -y 327 -Z 0 -z 20  -v circle -c black
n -t * -s 1  -x 884 -y 280 -Z 0 -z 20  -v circle -c black
n -t * -s 2  -x 474 -y 424 -Z 0 -z 20  -v circle -c black
n -t * -s 3  -x 980 -y 401 -Z 0 -z 20  -v circle -c black
n -t * -s 4  -x 996 -y 264 -Z 0 -z 20  -v circle -c black
n -t * -s 5  -x 509 -y 290 -Z 0 -z 20  -v circle -c black
V -t * -v 1.0a5 -a 0
W -t * -x 1096 -y 524
A -t * -n 1 -p 0 -o 0x7fffffff -c 30 -a 1
A -t * -h 1 -m 1073741823 -s 0
+ -t 0.470844958 -s 2 -d -1 -p message -e 32 -c 2 -a 0 -i 0 -k RTR 
- -t 0.470844958 -s 2 -d -1 -p message -e 32 -c 2 -a 0 -i 0 -k RTR
h -t 0.470844958 -s 2 -d -1 -p message -e 32 -c 2 -a 0 -i 0 -k RTR
+ -t 0.471079958 -s 2 -d -1 -p message -e 90 -c 2 -a 0 -i 0 -k MAC 
- -t 0.471079958 -s 2 -d -1 -p message -e 90 -c 2 -a 0 -i 0 -k MAC
h -t 0.471079958 -s 2 -d -1 -p message -e 90 -c 2 -a 0 -i 0 -k MAC
r -t 0.471800419 -s 5 -d -1 -p message -e 32 -c 2 -a 0 -i 0 -k MAC
r -t 0.471800672 -s 0 -d -1 -p message -e 32 -c 2 -a 0 -i 0 -k MAC
r -t 0.471825419 -s 5 -d -1 -p message -e 32 -c 2 -a 0 -i 0 -k RTR
r -t 0.471825672 -s 0 -d -1 -p message -e 32 -c 2 -a 0 -i 0 -k RTR
+ -t 0.626755393 -s 4 -d -1 -p message -e 32 -c 2 -a 0 -i 1 -k RTR 
- -t 0.626755393 -s 4 -d -1 -p message -e 32 -c 2 -a 0 -i 1 -k RTR
h -t 0.626755393 -s 4 -d -1 -p message -e 32 -c 2 -a 0 -i 1 -k RTR
+ -t 0.627150393 -s 4 -d -1 -p message -e 90 -c 2 -a 0 -i 1 -k MAC 
- -t 0.627150393 -s 4 -d -1 -p message -e 90 -c 2 -a 0 -i 1 -k MAC
h -t 0.627150393 -s 4 -d -1 -p message -e 90 -c 2 -a 0 -i 1 -k MAC
+ -t 0.627671596 -s 0 -d -1 -p message -e 32 -c 2 -a 0 -i 2 -k RTR 
- -t 0.627671596 -s 0 -d -1 -p message -e 32 -c 2 -a 0 -i 2 -k RTR
h -t 0.627671596 -s 0 -d -1 -p message -e 32 -c 2 -a 0 -i 2 -k RTR
r -t 0.627870770 -s 1 -d -1 -p message -e 32 -c 2 -a 0 -i 1 -k MAC
r -t 0.627870852 -s 3 -d -1 -p message -e 32 -c 2 -a 0 -i 1 -k MAC
r -t 0.627895770 -s 1 -d -1 -p message -e 32 -c 2 -a 0 -i 1 -k RTR
r -t 0.627895852 -s 3 -d -1 -p message -e 32 -c 2 -a 0 -i 1 -k RTR
+ -t 0.628485516 -s 0 -d -1 -p message -e 90 -c 2 -a 0 -i 2 -k MAC 
- -t 0.628485516 -s 0 -d -1 -p message -e 90 -c 2 -a 0 -i 2 -k MAC
h -t 0.628485516 -s 0 -d -1 -p message -e 90 -c 2 -a 0 -i 2 -k MAC
r -t 0.629206050 -s 5 -d -1 -p message -e 32 -c 2 -a 0 -i 2 -k MAC
r -t 0.629206230 -s 2 -d -1 -p message -e 32 -c 2 -a 0 -i 2 -k MAC
r -t 0.629206262 -s 1 -d -1 -p message -e 32 -c 2 -a 0 -i 2 -k MAC
r -t 0.629231050 -s 5 -d -1 -p message -e 32 -c 2 -a 0 -i 2 -k RTR
r -t 0.629231230 -s 2 -d -1 -p message -e 32 -c 2 -a 0 -i 2 -k RTR
r -t 0.629231262 -s 1 -d -1 -p message -e 32 -c 2 -a 0 -i 2 -k RTR
+ -t 1.000000000 -s 2 -d -1 -p tcp -e 40 -c 2 -a 0 -i 3 -k AGT 
- -t 1.000000000 -s 2 -d -1 -p tcp -e 40 -c 2 -a 0 -i 3 -k AGT
h -t 1.000000000 -s 2 -d -1 -p tcp -e 40 -c 2 -a 0 -i 3 -k AGT
+ -t 1.000000000 -s 2 -d 0 -p tcp -e 60 -c 2 -a 0 -i 3 -k RTR 
- -t 1.000000000 -s 2 -d 0 -p tcp -e 60 -c 2 -a 0 -i 3 -k RTR
h -t 1.000000000 -s 2 -d 0 -p tcp -e 60 -c 2 -a 0 -i 3 -k RTR
+ -t 1.000000000 -s 0 -d -1 -p tcp -e 40 -c 2 -a 0 -i 4 -k AGT 
- -t 1.000000000 -s 0 -d -1 -p tcp -e 40 -c 2 -a 0 -i 4 -k AGT
h -t 1.000000000 -s 0 -d -1 -p tcp -e 40 -c 2 -a 0 -i 4 -k AGT
+ -t 1.000000000 -s 1 -d -1 -p tcp -e 40 -c 2 -a 0 -i 5 -k AGT 
- -t 1.000000000 -s 1 -d -1 -p tcp -e 40 -c 2 -a 0 -i 5 -k AGT
h -t 1.000000000 -s 1 -d -1 -p tcp -e 40 -c 2 -a 0 -i 5 -k AGT
+ -t 1.000000000 -s 1 -d 0 -p tcp -e 60 -c 2 -a 0 -i 5 -k RTR 
- -t 1.000000000 -s 1 -d 0 -p tcp -e 60 -c 2 -a 0 -i 5 -k RTR
h -t 1.000000000 -s 1 -d 0 -p tcp -e 60 -c 2 -a 0 -i 5 -k RTR
+ -t 1.000000000 -s 3 -d -1 -p tcp -e 40 -c 2 -a 0 -i 6 -k AGT 
- -t 1.000000000 -s 3 -d -1 -p tcp -e 40 -c 2 -a 0 -i 6 -k AGT
h -t 1.000000000 -s 3 -d -1 -p tcp -e 40 -c 2 -a 0 -i 6 -k AGT
+ -t 1.000000000 -s 5 -d -1 -p tcp -e 40 -c 2 -a 0 -i 7 -k AGT 
- -t 1.000000000 -s 5 -d -1 -p tcp -e 40 -c 2 -a 0 -i 7 -k AGT
h -t 1.000000000 -s 5 -d -1 -p tcp -e 40 -c 2 -a 0 -i 7 -k AGT
+ -t 1.000000000 -s 5 -d 0 -p tcp -e 60 -c 2 -a 0 -i 7 -k RTR 
- -t 1.000000000 -s 5 -d 0 -p tcp -e 60 -c 2 -a 0 -i 7 -k RTR
h -t 1.000000000 -s 5 -d 0 -p tcp -e 60 -c 2 -a 0 -i 7 -k RTR
+ -t 1.000000000 -s 4 -d -1 -p tcp -e 40 -c 2 -a 0 -i 8 -k AGT 
- -t 1.000000000 -s 4 -d -1 -p tcp -e 40 -c 2 -a 0 -i 8 -k AGT
h -t 1.000000000 -s 4 -d -1 -p tcp -e 40 -c 2 -a 0 -i 8 -k AGT
+ -t 1.000235000 -s 5 -d -1 -p ARP -e 86 -c 2 -a 0 -i 0 -k MAC 
- -t 1.000235000 -s 5 -d -1 -p ARP -e 86 -c 2 -a 0 -i 0 -k MAC
h -t 1.000235000 -s 5 -d -1 -p ARP -e 86 -c 2 -a 0 -i 0 -k MAC
r -t 1.000923462 -s 2 -d -1 -p ARP -e 28 -c 2 -a 0 -i 0 -k MAC
r -t 1.000923534 -s 0 -d -1 -p ARP -e 28 -c 2 -a 0 -i 0 -k MAC
+ -t 1.001033462 -s 2 -d -1 -p ARP -e 86 -c 2 -a 0 -i 0 -k MAC 
- -t 1.001033462 -s 2 -d -1 -p ARP -e 86 -c 2 -a 0 -i 0 -k MAC
h -t 1.001033462 -s 2 -d -1 -p ARP -e 86 -c 2 -a 0 -i 0 -k MAC
r -t 1.001721923 -s 5 -d -1 -p ARP -e 28 -c 2 -a 0 -i 0 -k MAC
r -t 1.001722176 -s 0 -d -1 -p ARP -e 28 -c 2 -a 0 -i 0 -k MAC
+ -t 1.002132176 -s 0 -d -1 -p RTS -e 44 -c 2 -a 0 -i 0 -k MAC 
- -t 1.002132176 -s 0 -d -1 -p RTS -e 44 -c 2 -a 0 -i 0 -k MAC
h -t 1.002132176 -s 0 -d -1 -p RTS -e 44 -c 2 -a 0 -i 0 -k MAC
r -t 1.002484710 -s 5 -d -1 -p RTS -e 44 -c 2 -a 0 -i 0 -k MAC
+ -t 1.002494710 -s 5 -d -1 -p CTS -e 38 -c 2 -a 0 -i 0 -k MAC 
- -t 1.002494710 -s 5 -d -1 -p CTS -e 38 -c 2 -a 0 -i 0 -k MAC
h -t 1.002494710 -s 5 -d -1 -p CTS -e 38 -c 2 -a 0 -i 0 -k MAC
r -t 1.002799245 -s 0 -d -1 -p CTS -e 38 -c 2 -a 0 -i 0 -k MAC
+ -t 1.002809245 -s 0 -d -1 -p ARP -e 86 -c 2 -a 0 -i 0 -k MAC 
- -t 1.002809245 -s 0 -d -1 -p ARP -e 86 -c 2 -a 0 -i 0 -k MAC
h -t 1.002809245 -s 0 -d -1 -p ARP -e 86 -c 2 -a 0 -i 0 -k MAC
r -t 1.003497779 -s 5 -d -1 -p ARP -e 28 -c 2 -a 0 -i 0 -k MAC
+ -t 1.003507779 -s 5 -d -1 -p ACK -e 38 -c 2 -a 0 -i 0 -k MAC 
- -t 1.003507779 -s 5 -d -1 -p ACK -e 38 -c 2 -a 0 -i 0 -k MAC
h -t 1.003507779 -s 5 -d -1 -p ACK -e 38 -c 2 -a 0 -i 0 -k MAC
r -t 1.003812313 -s 0 -d -1 -p ACK -e 38 -c 2 -a 0 -i 0 -k MAC
+ -t 1.004021779 -s 5 -d -1 -p RTS -e 44 -c 2 -a 0 -i 0 -k MAC 
- -t 1.004021779 -s 5 -d -1 -p RTS -e 44 -c 2 -a 0 -i 0 -k MAC
h -t 1.004021779 -s 5 -d -1 -p RTS -e 44 -c 2 -a 0 -i 0 -k MAC
r -t 1.004374313 -s 0 -d -1 -p RTS -e 44 -c 2 -a 0 -i 0 -k MAC
+ -t 1.004384313 -s 0 -d -1 -p CTS -e 38 -c 2 -a 0 -i 0 -k MAC 
- -t 1.004384313 -s 0 -d -1 -p CTS -e 38 -c 2 -a 0 -i 0 -k MAC
h -t 1.004384313 -s 0 -d -1 -p CTS -e 38 -c 2 -a 0 -i 0 -k MAC
r -t 1.004688848 -s 5 -d -1 -p CTS -e 38 -c 2 -a 0 -i 0 -k MAC
+ -t 1.004698848 -s 5 -d 0 -p tcp -e 118 -c 2 -a 0 -i 7 -k MAC 
- -t 1.004698848 -s 5 -d 0 -p tcp -e 118 -c 2 -a 0 -i 7 -k MAC
h -t 1.004698848 -s 5 -d 0 -p tcp -e 118 -c 2 -a 0 -i 7 -k MAC
r -t 1.005643382 -s 0 -d 0 -p tcp -e 60 -c 2 -a 0 -i 7 -k MAC
+ -t 1.005653382 -s 0 -d -1 -p ACK -e 38 -c 2 -a 0 -i 0 -k MAC 
- -t 1.005653382 -s 0 -d -1 -p ACK -e 38 -c 2 -a 0 -i 0 -k MAC
h -t 1.005653382 -s 0 -d -1 -p ACK -e 38 -c 2 -a 0 -i 0 -k MAC
r -t 1.005668382 -s 0 -d 0 -p tcp -e 60 -c 2 -a 0 -i 7 -k AGT
+ -t 1.005668382 -s 0 -d -1 -p ack -e 40 -c 2 -a 0 -i 9 -k AGT 
- -t 1.005668382 -s 0 -d -1 -p ack -e 40 -c 2 -a 0 -i 9 -k AGT
h -t 1.005668382 -s 0 -d -1 -p ack -e 40 -c 2 -a 0 -i 9 -k AGT
r -t 1.005957917 -s 5 -d -1 -p ACK -e 38 -c 2 -a 0 -i 0 -k MAC
+ -t 1.006227382 -s 0 -d -1 -p RTS -e 44 -c 2 -a 0 -i 0 -k MAC 
- -t 1.006227382 -s 0 -d -1 -p RTS -e 44 -c 2 -a 0 -i 0 -k MAC
h -t 1.006227382 -s 0 -d -1 -p RTS -e 44 -c 2 -a 0 -i 0 -k MAC
r -t 1.006580096 -s 2 -d -1 -p RTS -e 44 -c 2 -a 0 -i 0 -k MAC
+ -t 1.006590096 -s 2 -d -1 -p CTS -e 38 -c 2 -a 0 -i 0 -k MAC 
- -t 1.006590096 -s 2 -d -1 -p CTS -e 38 -c 2 -a 0 -i 0 -k MAC
h -t 1.006590096 -s 2 -d -1 -p CTS -e 38 -c 2 -a 0 -i 0 -k MAC
r -t 1.006894810 -s 0 -d -1 -p CTS -e 38 -c 2 -a 0 -i 0 -k MAC
+ -t 1.006904810 -s 0 -d -1 -p ARP -e 86 -c 2 -a 0 -i 0 -k MAC 
- -t 1.006904810 -s 0 -d -1 -p ARP -e 86 -c 2 -a 0 -i 0 -k MAC
h -t 1.006904810 -s 0 -d -1 -p ARP -e 86 -c 2 -a 0 -i 0 -k MAC
r -t 1.007593524 -s 2 -d -1 -p ARP -e 28 -c 2 -a 0 -i 0 -k MAC
+ -t 1.007603524 -s 2 -d -1 -p ACK -e 38 -c 2 -a 0 -i 0 -k MAC 
- -t 1.007603524 -s 2 -d -1 -p ACK -e 38 -c 2 -a 0 -i 0 -k MAC
h -t 1.007603524 -s 2 -d -1 -p ACK -e 38 -c 2 -a 0 -i 0 -k MAC
r -t 1.007908239 -s 0 -d -1 -p ACK -e 38 -c 2 -a 0 -i 0 -k MAC
+ -t 1.008257524 -s 2 -d -1 -p RTS -e 44 -c 2 -a 0 -i 0 -k MAC 
- -t 1.008257524 -s 2 -d -1 -p RTS -e 44 -c 2 -a 0 -i 0 -k MAC
h -t 1.008257524 -s 2 -d -1 -p RTS -e 44 -c 2 -a 0 -i 0 -k MAC
r -t 1.008610239 -s 0 -d -1 -p RTS -e 44 -c 2 -a 0 -i 0 -k MAC
+ -t 1.008620239 -s 0 -d -1 -p CTS -e 38 -c 2 -a 0 -i 0 -k MAC 
- -t 1.008620239 -s 0 -d -1 -p CTS -e 38 -c 2 -a 0 -i 0 -k MAC
h -t 1.008620239 -s 0 -d -1 -p CTS -e 38 -c 2 -a 0 -i 0 -k MAC
r -t 1.008924953 -s 2 -d -1 -p CTS -e 38 -c 2 -a 0 -i 0 -k MAC
+ -t 1.008934953 -s 2 -d 0 -p tcp -e 118 -c 2 -a 0 -i 3 -k MAC 
- -t 1.008934953 -s 2 -d 0 -p tcp -e 118 -c 2 -a 0 -i 3 -k MAC
h -t 1.008934953 -s 2 -d 0 -p tcp -e 118 -c 2 -a 0 -i 3 -k MAC
r -t 1.009879667 -s 0 -d 0 -p tcp -e 60 -c 2 -a 0 -i 3 -k MAC
+ -t 1.009889667 -s 0 -d -1 -p ACK -e 38 -c 2 -a 0 -i 0 -k MAC 
- -t 1.009889667 -s 0 -d -1 -p ACK -e 38 -c 2 -a 0 -i 0 -k MAC
h -t 1.009889667 -s 0 -d -1 -p ACK -e 38 -c 2 -a 0 -i 0 -k MAC
r -t 1.009904667 -s 0 -d 0 -p tcp -e 60 -c 2 -a 0 -i 3 -k AGT
+ -t 1.009904667 -s 0 -d -1 -p ack -e 40 -c 2 -a 0 -i 10 -k AGT 
- -t 1.009904667 -s 0 -d -1 -p ack -e 40 -c 2 -a 0 -i 10 -k AGT
h -t 1.009904667 -s 0 -d -1 -p ack -e 40 -c 2 -a 0 -i 10 -k AGT
+ -t 1.009904667 -s 0 -d 2 -p ack -e 60 -c 2 -a 0 -i 10 -k RTR 
- -t 1.009904667 -s 0 -d 2 -p ack -e 60 -c 2 -a 0 -i 10 -k RTR
h -t 1.009904667 -s 0 -d 2 -p ack -e 60 -c 2 -a 0 -i 10 -k RTR
r -t 1.010194381 -s 2 -d -1 -p ACK -e 38 -c 2 -a 0 -i 0 -k MAC
+ -t 1.010323667 -s 0 -d -1 -p RTS -e 44 -c 2 -a 0 -i 0 -k MAC 
- -t 1.010323667 -s 0 -d -1 -p RTS -e 44 -c 2 -a 0 -i 0 -k MAC
h -t 1.010323667 -s 0 -d -1 -p RTS -e 44 -c 2 -a 0 -i 0 -k MAC
r -t 1.010676381 -s 2 -d -1 -p RTS -e 44 -c 2 -a 0 -i 0 -k MAC
+ -t 1.010686381 -s 2 -d -1 -p CTS -e 38 -c 2 -a 0 -i 0 -k MAC 
- -t 1.010686381 -s 2 -d -1 -p CTS -e 38 -c 2 -a 0 -i 0 -k MAC
h -t 1.010686381 -s 2 -d -1 -p CTS -e 38 -c 2 -a 0 -i 0 -k MAC
r -t 1.010991095 -s 0 -d -1 -p CTS -e 38 -c 2 -a 0 -i 0 -k MAC
+ -t 1.011001095 -s 0 -d 2 -p ack -e 118 -c 2 -a 0 -i 10 -k MAC 
- -t 1.011001095 -s 0 -d 2 -p ack -e 118 -c 2 -a 0 -i 10 -k MAC
h -t 1.011001095 -s 0 -d 2 -p ack -e 118 -c 2 -a 0 -i 10 -k MAC
r -t 1.011945809 -s 2 -d 2 -p ack -e 60 -c 2 -a 0 -i 10 -k MAC
+ -t 1.011955809 -s 2 -d -1 -p ACK -e 38 -c 2 -a 0 -i 0 -k MAC 
- -t 1.011955809 -s 2 -d -1 -p ACK -e 38 -c 2 -a 0 -i 0 -k MAC
h -t 1.011955809 -s 2 -d -1 -p ACK -e 38 -c 2 -a 0 -i 0 -k MAC
r -t 1.011970809 -s 2 -d 2 -p ack -e 60 -c 2 -a 0 -i 10 -k AGT
+ -t 1.011970809 -s 2 -d -1 -p tcp -e 1540 -c 2 -a 0 -i 11 -k AGT 
- -t 1.011970809 -s 2 -d -1 -p tcp -e 1540 -c 2 -a 0 -i 11 -k AGT
h -t 1.011970809 -s 2 -d -1 -p tcp -e 1540 -c 2 -a 0 -i 11 -k AGT
+ -t 1.011970809 -s 2 -d 0 -p tcp -e 1560 -c 2 -a 0 -i 11 -k RTR 
- -t 1.011970809 -s 2 -d 0 -p tcp -e 1560 -c 2 -a 0 -i 11 -k RTR
h -t 1.011970809 -s 2 -d 0 -p tcp -e 1560 -c 2 -a 0 -i 11 -k RTR
+ -t 1.011970809 -s 2 -d -1 -p tcp -e 1540 -c 2 -a 0 -i 12 -k AGT 
- -t 1.011970809 -s 2 -d -1 -p tcp -e 1540 -c 2 -a 0 -i 12 -k AGT
h -t 1.011970809 -s 2 -d -1 -p tcp -e 1540 -c 2 -a 0 -i 12 -k AGT
+ -t 1.011970809 -s 2 -d 0 -p tcp -e 1560 -c 2 -a 0 -i 12 -k RTR 
- -t 1.011970809 -s 2 -d 0 -p tcp -e 1560 -c 2 -a 0 -i 12 -k RTR
h -t 1.011970809 -s 2 -d 0 -p tcp -e 1560 -c 2 -a 0 -i 12 -k RTR
r -t 1.012260523 -s 0 -d -1 -p ACK -e 38 -c 2 -a 0 -i 0 -k MAC
+ -t 1.012389809 -s 2 -d -1 -p RTS -e 44 -c 2 -a 0 -i 0 -k MAC 
- -t 1.012389809 -s 2 -d -1 -p RTS -e 44 -c 2 -a 0 -i 0 -k MAC
h -t 1.012389809 -s 2 -d -1 -p RTS -e 44 -c 2 -a 0 -i 0 -k MAC
r -t 1.012742523 -s 0 -d -1 -p RTS -e 44 -c 2 -a 0 -i 0 -k MAC
+ -t 1.012752523 -s 0 -d -1 -p CTS -e 38 -c 2 -a 0 -i 0 -k MAC 
- -t 1.012752523 -s 0 -d -1 -p CTS -e 38 -c 2 -a 0 -i 0 -k MAC
h -t 1.012752523 -s 0 -d -1 -p CTS -e 38 -c 2 -a 0 -i 0 -k MAC
r -t 1.013057237 -s 2 -d -1 -p CTS -e 38 -c 2 -a 0 -i 0 -k MAC
+ -t 1.013067237 -s 2 -d 0 -p tcp -e 1618 -c 2 -a 0 -i 11 -k MAC 
- -t 1.013067237 -s 2 -d 0 -p tcp -e 1618 -c 2 -a 0 -i 11 -k MAC
h -t 1.013067237 -s 2 -d 0 -p tcp -e 1618 -c 2 -a 0 -i 11 -k MAC
r -t 1.026011951 -s 0 -d 0 -p tcp -e 1560 -c 2 -a 0 -i 11 -k MAC
+ -t 1.026021951 -s 0 -d -1 -p ACK -e 38 -c 2 -a 0 -i 0 -k MAC 
- -t 1.026021951 -s 0 -d -1 -p ACK -e 38 -c 2 -a 0 -i 0 -k MAC
h -t 1.026021951 -s 0 -d -1 -p ACK -e 38 -c 2 -a 0 -i 0 -k MAC
r -t 1.026036951 -s 0 -d 0 -p tcp -e 1560 -c 2 -a 0 -i 11 -k AGT
+ -t 1.026036951 -s 0 -d -1 -p ack -e 40 -c 2 -a 0 -i 13 -k AGT 
- -t 1.026036951 -s 0 -d -1 -p ack -e 40 -c 2 -a 0 -i 13 -k AGT
h -t 1.026036951 -s 0 -d -1 -p ack -e 40 -c 2 -a 0 -i 13 -k AGT
+ -t 1.026036951 -s 0 -d 2 -p ack -e 60 -c 2 -a 0 -i 13 -k RTR 
- -t 1.026036951 -s 0 -d 2 -p ack -e 60 -c 2 -a 0 -i 13 -k RTR
h -t 1.026036951 -s 0 -d 2 -p ack -e 60 -c 2 -a 0 -i 13 -k RTR
r -t 1.026326665 -s 2 -d -1 -p ACK -e 38 -c 2 -a 0 -i 0 -k MAC
+ -t 1.026506685 -s 1 -d -1 -p ARP -e 86 -c 2 -a 0 -i 0 -k MAC 
- -t 1.026506685 -s 1 -d -1 -p ARP -e 86 -c 2 -a 0 -i 0 -k MAC
h -t 1.026506685 -s 1 -d -1 -p ARP -e 86 -c 2 -a 0 -i 0 -k MAC
r -t 1.027195063 -s 4 -d -1 -p ARP -e 28 -c 2 -a 0 -i 0 -k MAC
r -t 1.027195200 -s 3 -d -1 -p ARP -e 28 -c 2 -a 0 -i 0 -k MAC
r -t 1.027195432 -s 0 -d -1 -p ARP -e 28 -c 2 -a 0 -i 0 -k MAC
+ -t 1.027405432 -s 0 -d -1 -p RTS -e 44 -c 2 -a 0 -i 0 -k MAC 
- -t 1.027405432 -s 0 -d -1 -p RTS -e 44 -c 2 -a 0 -i 0 -k MAC
h -t 1.027405432 -s 0 -d -1 -p RTS -e 44 -c 2 -a 0 -i 0 -k MAC
r -t 1.027758146 -s 2 -d -1 -p RTS -e 44 -c 2 -a 0 -i 0 -k MAC
+ -t 1.027768146 -s 2 -d -1 -p CTS -e 38 -c 2 -a 0 -i 0 -k MAC 
- -t 1.027768146 -s 2 -d -1 -p CTS -e 38 -c 2 -a 0 -i 0 -k MAC
h -t 1.027768146 -s 2 -d -1 -p CTS -e 38 -c 2 -a 0 -i 0 -k MAC
r -t 1.028072860 -s 0 -d -1 -p CTS -e 38 -c 2 -a 0 -i 0 -k MAC
+ -t 1.028082860 -s 0 -d 2 -p ack -e 118 -c 2 -a 0 -i 13 -k MAC 
- -t 1.028082860 -s 0 -d 2 -p ack -e 118 -c 2 -a 0 -i 13 -k MAC
h -t 1.028082860 -s 0 -d 2 -p ack -e 118 -c 2 -a 0 -i 13 -k MAC
r -t 1.029027574 -s 2 -d 2 -p ack -e 60 -c 2 -a 0 -i 13 -k MAC
+ -t 1.029037574 -s 2 -d -1 -p ACK -e 38 -c 2 -a 0 -i 0 -k MAC 
- -t 1.029037574 -s 2 -d -1 -p ACK -e 38 -c 2 -a 0 -i 0 -k MAC
h -t 1.029037574 -s 2 -d -1 -p ACK -e 38 -c 2 -a 0 -i 0 -k MAC
r -t 1.029052574 -s 2 -d 2 -p ack -e 60 -c 2 -a 0 -i 13 -k AGT
+ -t 1.029052574 -s 2 -d -1 -p tcp -e 1540 -c 2 -a 0 -i 14 -k AGT 
- -t 1.029052574 -s 2 -d -1 -p tcp -e 1540 -c 2 -a 0 -i 14 -k AGT
h -t 1.029052574 -s 2 -d -1 -p tcp -e 1540 -c 2 -a 0 -i 14 -k AGT
+ -t 1.029052574 -s 2 -d 0 -p tcp -e 1560 -c 2 -a 0 -i 14 -k RTR 
- -t 1.029052574 -s 2 -d 0 -p tcp -e 1560 -c 2 -a 0 -i 14 -k RTR
h -t 1.029052574 -s 2 -d 0 -p tcp -e 1560 -c 2 -a 0 -i 14 -k RTR
+ -t 1.029052574 -s 2 -d -1 -p tcp -e 1540 -c 2 -a 0 -i 15 -k AGT 
- -t 1.029052574 -s 2 -d -1 -p tcp -e 1540 -c 2 -a 0 -i 15 -k AGT
h -t 1.029052574 -s 2 -d -1 -p tcp -e 1540 -c 2 -a 0 -i 15 -k AGT
+ -t 1.029052574 -s 2 -d 0 -p tcp -e 1560 -c 2 -a 0 -i 15 -k RTR 
- -t 1.029052574 -s 2 -d 0 -p tcp -e 1560 -c 2 -a 0 -i 15 -k RTR
h -t 1.029052574 -s 2 -d 0 -p tcp -e 1560 -c 2 -a 0 -i 15 -k RTR
r -t 1.029342288 -s 0 -d -1 -p ACK -e 38 -c 2 -a 0 -i 0 -k MAC
+ -t 1.029471574 -s 2 -d -1 -p RTS -e 44 -c 2 -a 0 -i 0 -k MAC 
- -t 1.029471574 -s 2 -d -1 -p RTS -e 44 -c 2 -a 0 -i 0 -k MAC
h -t 1.029471574 -s 2 -d -1 -p RTS -e 44 -c 2 -a 0 -i 0 -k MAC
r -t 1.029824288 -s 0 -d -1 -p RTS -e 44 -c 2 -a 0 -i 0 -k MAC
+ -t 1.029834288 -s 0 -d -1 -p CTS -e 38 -c 2 -a 0 -i 0 -k MAC 
- -t 1.029834288 -s 0 -d -1 -p CTS -e 38 -c 2 -a 0 -i 0 -k MAC
h -t 1.029834288 -s 0 -d -1 -p CTS -e 38 -c 2 -a 0 -i 0 -k MAC
r -t 1.030139002 -s 2 -d -1 -p CTS -e 38 -c 2 -a 0 -i 0 -k MAC
+ -t 1.030149002 -s 2 -d 0 -p tcp -e 1618 -c 2 -a 0 -i 12 -k MAC 
- -t 1.030149002 -s 2 -d 0 -p tcp -e 1618 -c 2 -a 0 -i 12 -k MAC
h -t 1.030149002 -s 2 -d 0 -p tcp -e 1618 -c 2 -a 0 -i 12 -k MAC
r -t 1.043093717 -s 0 -d 0 -p tcp -e 1560 -c 2 -a 0 -i 12 -k MAC
+ -t 1.043103717 -s 0 -d -1 -p ACK -e 38 -c 2 -a 0 -i 0 -k MAC 
- -t 1.043103717 -s 0 -d -1 -p ACK -e 38 -c 2 -a 0 -i 0 -k MAC
h -t 1.043103717 -s 0 -d -1 -p ACK -e 38 -c 2 -a 0 -i 0 -k MAC
r -t 1.043118717 -s 0 -d 0 -p tcp -e 1560 -c 2 -a 0 -i 12 -k AGT
+ -t 1.043118717 -s 0 -d -1 -p ack -e 40 -c 2 -a 0 -i 16 -k AGT 
- -t 1.043118717 -s 0 -d -1 -p ack -e 40 -c 2 -a 0 -i 16 -k AGT
h -t 1.043118717 -s 0 -d -1 -p ack -e 40 -c 2 -a 0 -i 16 -k AGT
+ -t 1.043118717 -s 0 -d 2 -p ack -e 60 -c 2 -a 0 -i 16 -k RTR 
- -t 1.043118717 -s 0 -d 2 -p ack -e 60 -c 2 -a 0 -i 16 -k RTR
h -t 1.043118717 -s 0 -d 2 -p ack -e 60 -c 2 -a 0 -i 16 -k RTR
r -t 1.043408431 -s 2 -d -1 -p ACK -e 38 -c 2 -a 0 -i 0 -k MAC
+ -t 1.043678431 -s 2 -d -1 -p RTS -e 44 -c 2 -a 0 -i 0 -k MAC 
- -t 1.043678431 -s 2 -d -1 -p RTS -e 44 -c 2 -a 0 -i 0 -k MAC
h -t 1.043678431 -s 2 -d -1 -p RTS -e 44 -c 2 -a 0 -i 0 -k MAC
r -t 1.044031145 -s 0 -d -1 -p RTS -e 44 -c 2 -a 0 -i 0 -k MAC
+ -t 1.044041145 -s 0 -d -1 -p CTS -e 38 -c 2 -a 0 -i 0 -k MAC 
- -t 1.044041145 -s 0 -d -1 -p CTS -e 38 -c 2 -a 0 -i 0 -k MAC
h -t 1.044041145 -s 0 -d -1 -p CTS -e 38 -c 2 -a 0 -i 0 -k MAC
r -t 1.044345859 -s 2 -d -1 -p CTS -e 38 -c 2 -a 0 -i 0 -k MAC
+ -t 1.044355859 -s 2 -d 0 -p tcp -e 1618 -c 2 -a 0 -i 14 -k MAC 
- -t 1.044355859 -s 2 -d 0 -p tcp -e 1618 -c 2 -a 0 -i 14 -k MAC
h -t 1.044355859 -s 2 -d 0 -p tcp -e 1618 -c 2 -a 0 -i 14 -k MAC
r -t 1.057300573 -s 0 -d 0 -p tcp -e 1560 -c 2 -a 0 -i 14 -k MAC
+ -t 1.057310573 -s 0 -d -1 -p ACK -e 38 -c 2 -a 0 -i 0 -k MAC 
- -t 1.057310573 -s 0 -d -1 -p ACK -e 38 -c 2 -a 0 -i 0 -k MAC
h -t 1.057310573 -s 0 -d -1 -p ACK -e 38 -c 2 -a 0 -i 0 -k MAC
r -t 1.057325573 -s 0 -d 0 -p tcp -e 1560 -c 2 -a 0 -i 14 -k AGT
+ -t 1.057325573 -s 0 -d -1 -p ack -e 40 -c 2 -a 0 -i 17 -k AGT 
- -t 1.057325573 -s 0 -d -1 -p ack -e 40 -c 2 -a 0 -i 17 -k AGT
h -t 1.057325573 -s 0 -d -1 -p ack -e 40 -c 2 -a 0 -i 17 -k AGT
+ -t 1.057325573 -s 0 -d 2 -p ack -e 60 -c 2 -a 0 -i 17 -k RTR 
- -t 1.057325573 -s 0 -d 2 -p ack -e 60 -c 2 -a 0 -i 17 -k RTR
h -t 1.057325573 -s 0 -d 2 -p ack -e 60 -c 2 -a 0 -i 17 -k RTR
r -t 1.057615287 -s 2 -d -1 -p ACK -e 38 -c 2 -a 0 -i 0 -k MAC
+ -t 1.057865287 -s 2 -d -1 -p RTS -e 44 -c 2 -a 0 -i 0 -k MAC 
- -t 1.057865287 -s 2 -d -1 -p RTS -e 44 -c 2 -a 0 -i 0 -k MAC
h -t 1.057865287 -s 2 -d -1 -p RTS -e 44 -c 2 -a 0 -i 0 -k MAC
r -t 1.058218001 -s 0 -d -1 -p RTS -e 44 -c 2 -a 0 -i 0 -k MAC
+ -t 1.058228001 -s 0 -d -1 -p CTS -e 38 -c 2 -a 0 -i 0 -k MAC 
- -t 1.058228001 -s 0 -d -1 -p CTS -e 38 -c 2 -a 0 -i 0 -k MAC
h -t 1.058228001 -s 0 -d -1 -p CTS -e 38 -c 2 -a 0 -i 0 -k MAC
r -t 1.058532715 -s 2 -d -1 -p CTS -e 38 -c 2 -a 0 -i 0 -k MAC
+ -t 1.058542715 -s 2 -d 0 -p tcp -e 1618 -c 2 -a 0 -i 15 -k MAC 
- -t 1.058542715 -s 2 -d 0 -p tcp -e 1618 -c 2 -a 0 -i 15 -k MAC
h -t 1.058542715 -s 2 -d 0 -p tcp -e 1618 -c 2 -a 0 -i 15 -k MAC
r -t 1.071487429 -s 0 -d 0 -p tcp -e 1560 -c 2 -a 0 -i 15 -k MAC
+ -t 1.071497429 -s 0 -d -1 -p ACK -e 38 -c 2 -a 0 -i 0 -k MAC 
- -t 1.071497429 -s 0 -d -1 -p ACK -e 38 -c 2 -a 0 -i 0 -k MAC
h -t 1.071497429 -s 0 -d -1 -p ACK -e 38 -c 2 -a 0 -i 0 -k MAC
r -t 1.071512429 -s 0 -d 0 -p tcp -e 1560 -c 2 -a 0 -i 15 -k AGT
+ -t 1.071512429 -s 0 -d -1 -p ack -e 40 -c 2 -a 0 -i 18 -k AGT 
- -t 1.071512429 -s 0 -d -1 -p ack -e 40 -c 2 -a 0 -i 18 -k AGT
h -t 1.071512429 -s 0 -d -1 -p ack -e 40 -c 2 -a 0 -i 18 -k AGT
+ -t 1.071512429 -s 0 -d 2 -p ack -e 60 -c 2 -a 0 -i 18 -k RTR 
- -t 1.071512429 -s 0 -d 2 -p ack -e 60 -c 2 -a 0 -i 18 -k RTR
h -t 1.071512429 -s 0 -d 2 -p ack -e 60 -c 2 -a 0 -i 18 -k RTR
r -t 1.071802143 -s 2 -d -1 -p ACK -e 38 -c 2 -a 0 -i 0 -k MAC
+ -t 1.071891429 -s 0 -d -1 -p RTS -e 44 -c 2 -a 0 -i 0 -k MAC 
- -t 1.071891429 -s 0 -d -1 -p RTS -e 44 -c 2 -a 0 -i 0 -k MAC
h -t 1.071891429 -s 0 -d -1 -p RTS -e 44 -c 2 -a 0 -i 0 -k MAC
r -t 1.072244176 -s 1 -d -1 -p RTS -e 44 -c 2 -a 0 -i 0 -k MAC
+ -t 1.072254176 -s 1 -d -1 -p CTS -e 38 -c 2 -a 0 -i 0 -k MAC 
- -t 1.072254176 -s 1 -d -1 -p CTS -e 38 -c 2 -a 0 -i 0 -k MAC
h -t 1.072254176 -s 1 -d -1 -p CTS -e 38 -c 2 -a 0 -i 0 -k MAC
r -t 1.072558922 -s 0 -d -1 -p CTS -e 38 -c 2 -a 0 -i 0 -k MAC
+ -t 1.072568922 -s 0 -d -1 -p ARP -e 86 -c 2 -a 0 -i 0 -k MAC 
- -t 1.072568922 -s 0 -d -1 -p ARP -e 86 -c 2 -a 0 -i 0 -k MAC
h -t 1.072568922 -s 0 -d -1 -p ARP -e 86 -c 2 -a 0 -i 0 -k MAC
r -t 1.073257669 -s 1 -d -1 -p ARP -e 28 -c 2 -a 0 -i 0 -k MAC
+ -t 1.073267669 -s 1 -d -1 -p ACK -e 38 -c 2 -a 0 -i 0 -k MAC 
- -t 1.073267669 -s 1 -d -1 -p ACK -e 38 -c 2 -a 0 -i 0 -k MAC
h -t 1.073267669 -s 1 -d -1 -p ACK -e 38 -c 2 -a 0 -i 0 -k MAC
r -t 1.073572416 -s 0 -d -1 -p ACK -e 38 -c 2 -a 0 -i 0 -k MAC
+ -t 1.073681669 -s 1 -d -1 -p RTS -e 44 -c 2 -a 0 -i 0 -k MAC 
- -t 1.073681669 -s 1 -d -1 -p RTS -e 44 -c 2 -a 0 -i 0 -k MAC
h -t 1.073681669 -s 1 -d -1 -p RTS -e 44 -c 2 -a 0 -i 0 -k MAC
r -t 1.074034416 -s 0 -d -1 -p RTS -e 44 -c 2 -a 0 -i 0 -k MAC
+ -t 1.074044416 -s 0 -d -1 -p CTS -e 38 -c 2 -a 0 -i 0 -k MAC 
- -t 1.074044416 -s 0 -d -1 -p CTS -e 38 -c 2 -a 0 -i 0 -k MAC
h -t 1.074044416 -s 0 -d -1 -p CTS -e 38 -c 2 -a 0 -i 0 -k MAC
r -t 1.074349162 -s 1 -d -1 -p CTS -e 38 -c 2 -a 0 -i 0 -k MAC
+ -t 1.074359162 -s 1 -d 0 -p tcp -e 118 -c 2 -a 0 -i 5 -k MAC 
- -t 1.074359162 -s 1 -d 0 -p tcp -e 118 -c 2 -a 0 -i 5 -k MAC
h -t 1.074359162 -s 1 -d 0 -p tcp -e 118 -c 2 -a 0 -i 5 -k MAC
r -t 1.075303909 -s 0 -d 0 -p tcp -e 60 -c 2 -a 0 -i 5 -k MAC
+ -t 1.075313909 -s 0 -d -1 -p ACK -e 38 -c 2 -a 0 -i 0 -k MAC 
- -t 1.075313909 -s 0 -d -1 -p ACK -e 38 -c 2 -a 0 -i 0 -k MAC
h -t 1.075313909 -s 0 -d -1 -p ACK -e 38 -c 2 -a 0 -i 0 -k MAC
r -t 1.075328909 -s 0 -d 0 -p tcp -e 60 -c 2 -a 0 -i 5 -k AGT
+ -t 1.075328909 -s 0 -d -1 -p ack -e 40 -c 2 -a 0 -i 19 -k AGT 
- -t 1.075328909 -s 0 -d -1 -p ack -e 40 -c 2 -a 0 -i 19 -k AGT
h -t 1.075328909 -s 0 -d -1 -p ack -e 40 -c 2 -a 0 -i 19 -k AGT
r -t 1.075618655 -s 1 -d -1 -p ACK -e 38 -c 2 -a 0 -i 0 -k MAC
+ -t 1.075747909 -s 0 -d -1 -p RTS -e 44 -c 2 -a 0 -i 0 -k MAC 
- -t 1.075747909 -s 0 -d -1 -p RTS -e 44 -c 2 -a 0 -i 0 -k MAC
h -t 1.075747909 -s 0 -d -1 -p RTS -e 44 -c 2 -a 0 -i 0 -k MAC
r -t 1.076100623 -s 2 -d -1 -p RTS -e 44 -c 2 -a 0 -i 0 -k MAC
+ -t 1.076110623 -s 2 -d -1 -p CTS -e 38 -c 2 -a 0 -i 0 -k MAC 
- -t 1.076110623 -s 2 -d -1 -p CTS -e 38 -c 2 -a 0 -i 0 -k MAC
h -t 1.076110623 -s 2 -d -1 -p CTS -e 38 -c 2 -a 0 -i 0 -k MAC
r -t 1.076415337 -s 0 -d -1 -p CTS -e 38 -c 2 -a 0 -i 0 -k MAC
+ -t 1.076425337 -s 0 -d 2 -p ack -e 118 -c 2 -a 0 -i 16 -k MAC 
- -t 1.076425337 -s 0 -d 2 -p ack -e 118 -c 2 -a 0 -i 16 -k MAC
h -t 1.076425337 -s 0 -d 2 -p ack -e 118 -c 2 -a 0 -i 16 -k MAC
r -t 1.077370051 -s 2 -d 2 -p ack -e 60 -c 2 -a 0 -i 16 -k MAC
+ -t 1.077380051 -s 2 -d -1 -p ACK -e 38 -c 2 -a 0 -i 0 -k MAC 
- -t 1.077380051 -s 2 -d -1 -p ACK -e 38 -c 2 -a 0 -i 0 -k MAC
h -t 1.077380051 -s 2 -d -1 -p ACK -e 38 -c 2 -a 0 -i 0 -k MAC
r -t 1.077395051 -s 2 -d 2 -p ack -e 60 -c 2 -a 0 -i 16 -k AGT
+ -t 1.077395051 -s 2 -d -1 -p tcp -e 1540 -c 2 -a 0 -i 20 -k AGT 
- -t 1.077395051 -s 2 -d -1 -p tcp -e 1540 -c 2 -a 0 -i 20 -k AGT
h -t 1.077395051 -s 2 -d -1 -p tcp -e 1540 -c 2 -a 0 -i 20 -k AGT
+ -t 1.077395051 -s 2 -d 0 -p tcp -e 1560 -c 2 -a 0 -i 20 -k RTR 
- -t 1.077395051 -s 2 -d 0 -p tcp -e 1560 -c 2 -a 0 -i 20 -k RTR
h -t 1.077395051 -s 2 -d 0 -p tcp -e 1560 -c 2 -a 0 -i 20 -k RTR
+ -t 1.077395051 -s 2 -d -1 -p tcp -e 1540 -c 2 -a 0 -i 21 -k AGT 
- -t 1.077395051 -s 2 -d -1 -p tcp -e 1540 -c 2 -a 0 -i 21 -k AGT
h -t 1.077395051 -s 2 -d -1 -p tcp -e 1540 -c 2 -a 0 -i 21 -k AGT
+ -t 1.077395051 -s 2 -d 0 -p tcp -e 1560 -c 2 -a 0 -i 21 -k RTR 
- -t 1.077395051 -s 2 -d 0 -p tcp -e 1560 -c 2 -a 0 -i 21 -k RTR
h -t 1.077395051 -s 2 -d 0 -p tcp -e 1560 -c 2 -a 0 -i 21 -k RTR
r -t 1.077684765 -s 0 -d -1 -p ACK -e 38 -c 2 -a 0 -i 0 -k MAC
+ -t 1.078234765 -s 0 -d -1 -p RTS -e 44 -c 2 -a 0 -i 0 -k MAC 
- -t 1.078234765 -s 0 -d -1 -p RTS -e 44 -c 2 -a 0 -i 0 -k MAC
h -t 1.078234765 -s 0 -d -1 -p RTS -e 44 -c 2 -a 0 -i 0 -k MAC
r -t 1.078587479 -s 2 -d -1 -p RTS -e 44 -c 2 -a 0 -i 0 -k MAC
+ -t 1.078597479 -s 2 -d -1 -p CTS -e 38 -c 2 -a 0 -i 0 -k MAC 
- -t 1.078597479 -s 2 -d -1 -p CTS -e 38 -c 2 -a 0 -i 0 -k MAC
h -t 1.078597479 -s 2 -d -1 -p CTS -e 38 -c 2 -a 0 -i 0 -k MAC
r -t 1.078902193 -s 0 -d -1 -p CTS -e 38 -c 2 -a 0 -i 0 -k MAC
+ -t 1.078912193 -s 0 -d 2 -p ack -e 118 -c 2 -a 0 -i 17 -k MAC 
- -t 1.078912193 -s 0 -d 2 -p ack -e 118 -c 2 -a 0 -i 17 -k MAC
h -t 1.078912193 -s 0 -d 2 -p ack -e 118 -c 2 -a 0 -i 17 -k MAC
r -t 1.079856907 -s 2 -d 2 -p ack -e 60 -c 2 -a 0 -i 17 -k MAC
+ -t 1.079866907 -s 2 -d -1 -p ACK -e 38 -c 2 -a 0 -i 0 -k MAC 
- -t 1.079866907 -s 2 -d -1 -p ACK -e 38 -c 2 -a 0 -i 0 -k MAC
h -t 1.079866907 -s 2 -d -1 -p ACK -e 38 -c 2 -a 0 -i 0 -k MAC
r -t 1.079881907 -s 2 -d 2 -p ack -e 60 -c 2 -a 0 -i 17 -k AGT
+ -t 1.079881907 -s 2 -d -1 -p tcp -e 1540 -c 2 -a 0 -i 22 -k AGT 
- -t 1.079881907 -s 2 -d -1 -p tcp -e 1540 -c 2 -a 0 -i 22 -k AGT
h -t 1.079881907 -s 2 -d -1 -p tcp -e 1540 -c 2 -a 0 -i 22 -k AGT
+ -t 1.079881907 -s 2 -d 0 -p tcp -e 1560 -c 2 -a 0 -i 22 -k RTR 
- -t 1.079881907 -s 2 -d 0 -p tcp -e 1560 -c 2 -a 0 -i 22 -k RTR
h -t 1.079881907 -s 2 -d 0 -p tcp -e 1560 -c 2 -a 0 -i 22 -k RTR
+ -t 1.079881907 -s 2 -d -1 -p tcp -e 1540 -c 2 -a 0 -i 23 -k AGT 
- -t 1.079881907 -s 2 -d -1 -p tcp -e 1540 -c 2 -a 0 -i 23 -k AGT
h -t 1.079881907 -s 2 -d -1 -p tcp -e 1540 -c 2 -a 0 -i 23 -k AGT
+ -t 1.079881907 -s 2 -d 0 -p tcp -e 1560 -c 2 -a 0 -i 23 -k RTR 
- -t 1.079881907 -s 2 -d 0 -p tcp -e 1560 -c 2 -a 0 -i 23 -k RTR
h -t 1.079881907 -s 2 -d 0 -p tcp -e 1560 -c 2 -a 0 -i 23 -k RTR
r -t 1.080171621 -s 0 -d -1 -p ACK -e 38 -c 2 -a 0 -i 0 -k MAC
+ -t 1.080260907 -s 2 -d -1 -p RTS -e 44 -c 2 -a 0 -i 0 -k MAC 
- -t 1.080260907 -s 2 -d -1 -p RTS -e 44 -c 2 -a 0 -i 0 -k MAC
h -t 1.080260907 -s 2 -d -1 -p RTS -e 44 -c 2 -a 0 -i 0 -k MAC
r -t 1.080613621 -s 0 -d -1 -p RTS -e 44 -c 2 -a 0 -i 0 -k MAC
+ -t 1.080623621 -s 0 -d -1 -p CTS -e 38 -c 2 -a 0 -i 0 -k MAC 
- -t 1.080623621 -s 0 -d -1 -p CTS -e 38 -c 2 -a 0 -i 0 -k MAC
h -t 1.080623621 -s 0 -d -1 -p CTS -e 38 -c 2 -a 0 -i 0 -k MAC
r -t 1.080928335 -s 2 -d -1 -p CTS -e 38 -c 2 -a 0 -i 0 -k MAC
+ -t 1.080938335 -s 2 -d 0 -p tcp -e 1618 -c 2 -a 0 -i 20 -k MAC 
- -t 1.080938335 -s 2 -d 0 -p tcp -e 1618 -c 2 -a 0 -i 20 -k MAC
h -t 1.080938335 -s 2 -d 0 -p tcp -e 1618 -c 2 -a 0 -i 20 -k MAC
r -t 1.093883049 -s 0 -d 0 -p tcp -e 1560 -c 2 -a 0 -i 20 -k MAC
+ -t 1.093893049 -s 0 -d -1 -p ACK -e 38 -c 2 -a 0 -i 0 -k MAC 
- -t 1.093893049 -s 0 -d -1 -p ACK -e 38 -c 2 -a 0 -i 0 -k MAC
h -t 1.093893049 -s 0 -d -1 -p ACK -e 38 -c 2 -a 0 -i 0 -k MAC
r -t 1.093908049 -s 0 -d 0 -p tcp -e 1560 -c 2 -a 0 -i 20 -k AGT
+ -t 1.093908049 -s 0 -d -1 -p ack -e 40 -c 2 -a 0 -i 24 -k AGT 
- -t 1.093908049 -s 0 -d -1 -p ack -e 40 -c 2 -a 0 -i 24 -k AGT
h -t 1.093908049 -s 0 -d -1 -p ack -e 40 -c 2 -a 0 -i 24 -k AGT
+ -t 1.093908049 -s 0 -d 2 -p ack -e 60 -c 2 -a 0 -i 24 -k RTR 
- -t 1.093908049 -s 0 -d 2 -p ack -e 60 -c 2 -a 0 -i 24 -k RTR
h -t 1.093908049 -s 0 -d 2 -p ack -e 60 -c 2 -a 0 -i 24 -k RTR
r -t 1.094197763 -s 2 -d -1 -p ACK -e 38 -c 2 -a 0 -i 0 -k MAC
+ -t 1.094427763 -s 2 -d -1 -p RTS -e 44 -c 2 -a 0 -i 0 -k MAC 
- -t 1.094427763 -s 2 -d -1 -p RTS -e 44 -c 2 -a 0 -i 0 -k MAC
h -t 1.094427763 -s 2 -d -1 -p RTS -e 44 -c 2 -a 0 -i 0 -k MAC
r -t 1.094780478 -s 0 -d -1 -p RTS -e 44 -c 2 -a 0 -i 0 -k MAC
+ -t 1.094790478 -s 0 -d -1 -p CTS -e 38 -c 2 -a 0 -i 0 -k MAC 
- -t 1.094790478 -s 0 -d -1 -p CTS -e 38 -c 2 -a 0 -i 0 -k MAC
h -t 1.094790478 -s 0 -d -1 -p CTS -e 38 -c 2 -a 0 -i 0 -k MAC
r -t 1.095095192 -s 2 -d -1 -p CTS -e 38 -c 2 -a 0 -i 0 -k MAC
+ -t 1.095105192 -s 2 -d 0 -p tcp -e 1618 -c 2 -a 0 -i 21 -k MAC 
- -t 1.095105192 -s 2 -d 0 -p tcp -e 1618 -c 2 -a 0 -i 21 -k MAC
h -t 1.095105192 -s 2 -d 0 -p tcp -e 1618 -c 2 -a 0 -i 21 -k MAC
r -t 1.108049906 -s 0 -d 0 -p tcp -e 1560 -c 2 -a 0 -i 21 -k MAC
+ -t 1.108059906 -s 0 -d -1 -p ACK -e 38 -c 2 -a 0 -i 0 -k MAC 
- -t 1.108059906 -s 0 -d -1 -p ACK -e 38 -c 2 -a 0 -i 0 -k MAC
h -t 1.108059906 -s 0 -d -1 -p ACK -e 38 -c 2 -a 0 -i 0 -k MAC
r -t 1.108074906 -s 0 -d 0 -p tcp -e 1560 -c 2 -a 0 -i 21 -k AGT
+ -t 1.108074906 -s 0 -d -1 -p ack -e 40 -c 2 -a 0 -i 25 -k AGT 
- -t 1.108074906 -s 0 -d -1 -p ack -e 40 -c 2 -a 0 -i 25 -k AGT
h -t 1.108074906 -s 0 -d -1 -p ack -e 40 -c 2 -a 0 -i 25 -k AGT
+ -t 1.108074906 -s 0 -d 2 -p ack -e 60 -c 2 -a 0 -i 25 -k RTR 
- -t 1.108074906 -s 0 -d 2 -p ack -e 60 -c 2 -a 0 -i 25 -k RTR
h -t 1.108074906 -s 0 -d 2 -p ack -e 60 -c 2 -a 0 -i 25 -k RTR
r -t 1.108364620 -s 2 -d -1 -p ACK -e 38 -c 2 -a 0 -i 0 -k MAC
+ -t 1.108493906 -s 0 -d -1 -p RTS -e 44 -c 2 -a 0 -i 0 -k MAC 
- -t 1.108493906 -s 0 -d -1 -p RTS -e 44 -c 2 -a 0 -i 0 -k MAC
h -t 1.108493906 -s 0 -d -1 -p RTS -e 44 -c 2 -a 0 -i 0 -k MAC
r -t 1.108846620 -s 2 -d -1 -p RTS -e 44 -c 2 -a 0 -i 0 -k MAC
+ -t 1.108856620 -s 2 -d -1 -p CTS -e 38 -c 2 -a 0 -i 0 -k MAC 
- -t 1.108856620 -s 2 -d -1 -p CTS -e 38 -c 2 -a 0 -i 0 -k MAC
h -t 1.108856620 -s 2 -d -1 -p CTS -e 38 -c 2 -a 0 -i 0 -k MAC
r -t 1.109161334 -s 0 -d -1 -p CTS -e 38 -c 2 -a 0 -i 0 -k MAC
+ -t 1.109171334 -s 0 -d 2 -p ack -e 118 -c 2 -a 0 -i 18 -k MAC 
- -t 1.109171334 -s 0 -d 2 -p ack -e 118 -c 2 -a 0 -i 18 -k MAC
h -t 1.109171334 -s 0 -d 2 -p ack -e 118 -c 2 -a 0 -i 18 -k MAC
r -t 1.110116048 -s 2 -d 2 -p ack -e 60 -c 2 -a 0 -i 18 -k MAC
+ -t 1.110126048 -s 2 -d -1 -p ACK -e 38 -c 2 -a 0 -i 0 -k MAC 
- -t 1.110126048 -s 2 -d -1 -p ACK -e 38 -c 2 -a 0 -i 0 -k MAC
h -t 1.110126048 -s 2 -d -1 -p ACK -e 38 -c 2 -a 0 -i 0 -k MAC
r -t 1.110141048 -s 2 -d 2 -p ack -e 60 -c 2 -a 0 -i 18 -k AGT
+ -t 1.110141048 -s 2 -d -1 -p tcp -e 1540 -c 2 -a 0 -i 26 -k AGT 
- -t 1.110141048 -s 2 -d -1 -p tcp -e 1540 -c 2 -a 0 -i 26 -k AGT
h -t 1.110141048 -s 2 -d -1 -p tcp -e 1540 -c 2 -a 0 -i 26 -k AGT
+ -t 1.110141048 -s 2 -d 0 -p tcp -e 1560 -c 2 -a 0 -i 26 -k RTR 
- -t 1.110141048 -s 2 -d 0 -p tcp -e 1560 -c 2 -a 0 -i 26 -k RTR