s 0.470844958 _2_ RTR  --- 0 message 32 [0 0 0 0] ------- [2:255 -1:255 32 0] 
s 0.471079958 _2_ MAC  --- 0 message 90 [0 ffffffff 2 800] ------- [2:255 -1:255 32 0] 
r 0.471800419 _5_ MAC  --- 0 message 32 [0 ffffffff 2 800] ------- [2:255 -1:255 32 0] 
r 0.471800672 _0_ MAC  --- 0 message 32 [0 ffffffff 2 800] ------- [2:255 -1:255 32 0] 
r 0.471825419 _5_ RTR  --- 0 message 32 [0 ffffffff 2 800] ------- [2:255 -1:255 32 0] 
r 0.471825672 _0_ RTR  --- 0 message 32 [0 ffffffff 2 800] ------- [2:255 -1:255 32 0] 
s 0.626755393 _4_ RTR  --- 1 message 32 [0 0 0 0] ------- [4:255 -1:255 32 0] 
s 0.627150393 _4_ MAC  --- 1 message 90 [0 ffffffff 4 800] ------- [4:255 -1:255 32 0] 
s 0.627671596 _0_ RTR  --- 2 message 32 [0 0 0 0] ------- [0:255 -1:255 32 0] 
r 0.627870770 _1_ MAC  --- 1 message 32 [0 ffffffff 4 800] ------- [4:255 -1:255 32 0] 
r 0.627870852 _3_ MAC  --- 1 message 32 [0 ffffffff 4 800] ------- [4:255 -1:255 32 0] 
r 0.627895770 _1_ RTR  --- 1 message 32 [0 ffffffff 4 800] ------- [4:255 -1:255 32 0] 
r 0.627895852 _3_ RTR  --- 1 message 32 [0 ffffffff 4 800] ------- [4:255 -1:255 32 0] 
s 0.628485516 _0_ MAC  --- 2 message 90 [0 ffffffff 0 800] ------- [0:255 -1:255 32 0] 
r 0.629206050 _5_ MAC  --- 2 message 32 [0 ffffffff 0 800] ------- [0:255 -1:255 32 0] 
r 0.629206230 _2_ MAC  --- 2 message 32 [0 ffffffff 0 800] ------- [0:255 -1:255 32 0] 
r 0.629206262 _1_ MAC  --- 2 message 32 [0 ffffffff 0 800] ------- [0:255 -1:255 32 0] 
r 0.629231050 _5_ RTR  --- 2 message 32 [0 ffffffff 0 800] ------- [0:255 -1:255 32 0] 
r 0.629231230 _2_ RTR  --- 2 message 32 [0 ffffffff 0 800] ------- [0:255 -1:255 32 0] 
r 0.629231262 _1_ RTR  --- 2 message 32 [0 ffffffff 0 800] ------- [0:255 -1:255 32 0] 
s 1.000000000 _2_ AGT  --- 3 tcp 40 [0 0 0 0] ------- [2:0 0:0 32 0] [0 0] 0 0
r 1.000000000 _2_ RTR  --- 3 tcp 40 [0 0 0 0] ------- [2:0 0:0 32 0] [0 0] 0 0
s 1.000000000 _2_ RTR  --- 3 tcp 60 [0 0 0 0] ------- [2:0 0:0 32 0] [0 0] 0 0
s 1.000000000 _0_ AGT  --- 4 tcp 40 [0 0 0 0] ------- [0:1 1:0 32 0] [0 0] 0 0
r 1.000000000 _0_ RTR  --- 4 tcp 40 [0 0 0 0] ------- [0:1 1:0 32 0] [0 0] 0 0
s 1.000000000 _1_ AGT  --- 5 tcp 40 [0 0 0 0] ------- [1:1 0:2 32 0] [0 0] 0 0
r 1.000000000 _1_ RTR  --- 5 tcp 40 [0 0 0 0] ------- [1:1 0:2 32 0] [0 0] 0 0
s 1.000000000 _1_ RTR  --- 5 tcp 60 [0 0 0 0] ------- [1:1 0:2 32 0] [0 0] 0 0
s 1.000000000 _3_ AGT  --- 6 tcp 40 [0 0 0 0] ------- [3:0 1:2 32 0] [0 0] 0 0
r 1.000000000 _3_ RTR  --- 6 tcp 40 [0 0 0 0] ------- [3:0 1:2 32 0] [0 0] 0 0
s 1.000000000 _5_ AGT  --- 7 tcp 40 [0 0 0 0] ------- [5:0 0:3 32 0] [0 0] 0 0
r 1.000000000 _5_ RTR  --- 7 tcp 40 [0 0 0 0] ------- [5:0 0:3 32 0] [0 0] 0 0
s 1.000000000 _5_ RTR  --- 7 tcp 60 [0 0 0 0] ------- [5:0 0:3 32 0] [0 0] 0 0
s 1.000000000 _4_ AGT  --- 8 tcp 40 [0 0 0 0] ------- [4:0 1:3 32 0] [0 0] 0 0
r 1.000000000 _4_ RTR  --- 8 tcp 40 [0 0 0 0] ------- [4:0 1:3 32 0] [0 0] 0 0
s 1.000235000 _5_ MAC  --- 0 ARP 86 [0 ffffffff 5 806] ------- [REQUEST 5/5 0/0]
r 1.000923462 _2_ MAC  --- 0 ARP 28 [0 ffffffff 5 806] ------- [REQUEST 5/5 0/0]
r 1.000923534 _0_ MAC  --- 0 ARP 28 [0 ffffffff 5 806] ------- [REQUEST 5/5 0/0]
s 1.001033462 _2_ MAC  --- 0 ARP 86 [0 ffffffff 2 806] ------- [REQUEST 2/2 0/0]
r 1.001721923 _5_ MAC  --- 0 ARP 28 [0 ffffffff 2 806] ------- [REQUEST 2/2 0/0]
r 1.001722176 _0_ MAC  --- 0 ARP 28 [0 ffffffff 2 806] ------- [REQUEST 2/2 0/0]
s 1.002132176 _0_ MAC  --- 0 RTS 44 [52e 5 0 0] 
r 1.002484710 _5_ MAC  --- 0 RTS 44 [52e 5 0 0] 
s 1.002494710 _5_ MAC  --- 0 CTS 38 [3f4 0 0 0] 
r 1.002799245 _0_ MAC  --- 0 CTS 38 [3f4 0 0 0] 
s 1.002809245 _0_ MAC  --- 0 ARP 86 [13a 5 0 806] ------- [REPLY 0/0 5/5]
r 1.003497779 _5_ MAC  --- 0 ARP 28 [13a 5 0 806] ------- [REPLY 0/0 5/5]
s 1.003507779 _5_ MAC  --- 0 ACK 38 [0 0 0 0] 
r 1.003812313 _0_ MAC  --- 0 ACK 38 [0 0 0 0] 
s 1.004021779 _5_ MAC  --- 0 RTS 44 [62e 0 5 0] 
r 1.004374313 _0_ MAC  --- 0 RTS 44 [62e 0 5 0] 
s 1.004384313 _0_ MAC  --- 0 CTS 38 [4f4 5 0 0] 
r 1.004688848 _5_ MAC  --- 0 CTS 38 [4f4 5 0 0] 
s 1.004698848 _5_ MAC  --- 7 tcp 118 [13a 0 5 800] ------- [5:0 0:3 32 0] [0 0] 0 0
r 1.005643382 _0_ MAC  --- 7 tcp 60 [13a 0 5 800] ------- [5:0 0:3 32 0] [0 0] 1 0
s 1.005653382 _0_ MAC  --- 0 ACK 38 [0 5 0 0] 
r 1.005668382 _0_ AGT  --- 7 tcp 60 [13a 0 5 800] ------- [5:0 0:3 32 0] [0 0] 1 0
s 1.005668382 _0_ AGT  --- 9 ack 40 [0 0 0 0] ------- [0:3 5:0 32 0] [0 0] 0 0
r 1.005668382 _0_ RTR  --- 9 ack 40 [0 0 0 0] ------- [0:3 5:0 32 0] [0 0] 0 0
r 1.005957917 _5_ MAC  --- 0 ACK 38 [0 5 0 0] 
s 1.006227382 _0_ MAC  --- 0 RTS 44 [52e 2 0 0] 
r 1.006580096 _2_ MAC  --- 0 RTS 44 [52e 2 0 0] 
s 1.006590096 _2_ MAC  --- 0 CTS 38 [3f4 0 0 0] 
r 1.006894810 _0_ MAC  --- 0 CTS 38 [3f4 0 0 0] 
s 1.006904810 _0_ MAC  --- 0 ARP 86 [13a 2 0 806] ------- [REPLY 0/0 2/2]
r 1.007593524 _2_ MAC  --- 0 ARP 28 [13a 2 0 806] ------- [REPLY 0/0 2/2]
s 1.007603524 _2_ MAC  --- 0 ACK 38 [0 0 0 0] 
r 1.007908239 _0_ MAC  --- 0 ACK 38 [0 0 0 0] 
s 1.008257524 _2_ MAC  --- 0 RTS 44 [62e 0 2 0] 
r 1.008610239 _0_ MAC  --- 0 RTS 44 [62e 0 2 0] 
s 1.008620239 _0_ MAC  --- 0 CTS 38 [4f4 2 0 0] 
r 1.008924953 _2_ MAC  --- 0 CTS 38 [4f4 2 0 0] 
s 1.008934953 _2_ MAC  --- 3 tcp 118 [13a 0 2 800] ------- [2:0 0:0 32 0] [0 0] 0 0
r 1.009879667 _0_ MAC  --- 3 tcp 60 [13a 0 2 800] ------- [2:0 0:0 32 0] [0 0] 1 0
s 1.009889667 _0_ MAC  --- 0 ACK 38 [0 2 0 0] 
r 1.009904667 _0_ AGT  --- 3 tcp 60 [13a 0 2 800] ------- [2:0 0:0 32 0] [0 0] 1 0
s 1.009904667 _0_ AGT  --- 10 ack 40 [0 0 0 0] ------- [0:0 2:0 32 0] [0 0] 0 0
r 1.009904667 _0_ RTR  --- 10 ack 40 [0 0 0 0] ------- [0:0 2:0 32 0] [0 0] 0 0
s 1.009904667 _0_ RTR  --- 10 ack 60 [0 0 0 0] ------- [0:0 2:0 32 2] [0 0] 0 0
r 1.010194381 _2_ MAC  --- 0 ACK 38 [0 2 0 0] 
s 1.010323667 _0_ MAC  --- 0 RTS 44 [62e 2 0 0] 
r 1.010676381 _2_ MAC  --- 0 RTS 44 [62e 2 0 0] 
s 1.010686381 _2_ MAC  --- 0 CTS 38 [4f4 0 0 0] 
r 1.010991095 _0_ MAC  --- 0 CTS 38 [4f4 0 0 0] 
s 1.011001095 _0_ MAC  --- 10 ack 118 [13a 2 0 800] ------- [0:0 2:0 32 2] [0 0] 0 0
r 1.011945809 _2_ MAC  --- 10 ack 60 [13a 2 0 800] ------- [0:0 2:0 32 2] [0 0] 1 0
s 1.011955809 _2_ MAC  --- 0 ACK 38 [0 0 0 0] 
r 1.011970809 _2_ AGT  --- 10 ack 60 [13a 2 0 800] ------- [0:0 2:0 32 2] [0 0] 1 0
s 1.011970809 _2_ AGT  --- 11 tcp 1540 [0 0 0 0] ------- [2:0 0:0 32 0] [1 0] 0 0
r 1.011970809 _2_ RTR  --- 11 tcp 1540 [0 0 0 0] ------- [2:0 0:0 32 0] [1 0] 0 0
s 1.011970809 _2_ RTR  --- 11 tcp 1560 [0 0 0 0] ------- [2:0 0:0 32 0] [1 0] 0 0
s 1.011970809 _2_ AGT  --- 12 tcp 1540 [0 0 0 0] ------- [2:0 0:0 32 0] [2 0] 0 0
r 1.011970809 _2_ RTR  --- 12 tcp 1540 [0 0 0 0] ------- [2:0 0:0 32 0] [2 0] 0 0
s 1.011970809 _2_ RTR  --- 12 tcp 1560 [0 0 0 0] ------- [2:0 0:0 32 0] [2 0] 0 0
r 1.012260523 _0_ MAC  --- 0 ACK 38 [0 0 0 0] 
s 1.012389809 _2_ MAC  --- 0 RTS 44 [350e 0 2 0] 
r 1.012742523 _0_ MAC  --- 0 RTS 44 [350e 0 2 0] 
s 1.012752523 _0_ MAC  --- 0 CTS 38 [33d4 2 0 0] 
r 1.013057237 _2_ MAC  --- 0 CTS 38 [33d4 2 0 0] 
s 1.013067237 _2_ MAC  --- 11 tcp 1618 [13a 0 2 800] ------- [2:0 0:0 32 0] [1 0] 0 0
r 1.026011951 _0_ MAC  --- 11 tcp 1560 [13a 0 2 800] ------- [2:0 0:0 32 0] [1 0] 1 0
s 1.026021951 _0_ MAC  --- 0 ACK 38 [0 2 0 0] 
r 1.026036951 _0_ AGT  --- 11 tcp 1560 [13a 0 2 800] ------- [2:0 0:0 32 0] [1 0] 1 0
s 1.026036951 _0_ AGT  --- 13 ack 40 [0 0 0 0] ------- [0:0 2:0 32 0] [1 0] 0 0
r 1.026036951 _0_ RTR  --- 13 ack 40 [0 0 0 0] ------- [0:0 2:0 32 0] [1 0] 0 0
s 1.026036951 _0_ RTR  --- 13 ack 60 [0 0 0 0] ------- [0:0 2:0 32 2] [1 0] 0 0
r 1.026326665 _2_ MAC  --- 0 ACK 38 [0 2 0 0] 
s 1.026506685 _1_ MAC  --- 0 ARP 86 [0 ffffffff 1 806] ------- [REQUEST 1/1 0/0]
r 1.027195063 _4_ MAC  --- 0 ARP 28 [0 ffffffff 1 806] ------- [REQUEST 1/1 0/0]
r 1.027195200 _3_ MAC  --- 0 ARP 28 [0 ffffffff 1 806] ------- [REQUEST 1/1 0/0]
r 1.027195432 _0_ MAC  --- 0 ARP 28 [0 ffffffff 1 806] ------- [REQUEST 1/1 0/0]
s 1.027405432 _0_ MAC  --- 0 RTS 44 [62e 2 0 0] 
r 1.027758146 _2_ MAC  --- 0 RTS 44 [62e 2 0 0] 
s 1.027768146 _2_ MAC  --- 0 CTS 38 [4f4 0 0 0] 
r 1.028072860 _0_ MAC  --- 0 CTS 38 [4f4 0 0 0] 
s 1.028082860 _0_ MAC  --- 13 ack 118 [13a 2 0 800] ------- [0:0 2:0 32 2] [1 0] 0 0
r 1.029027574 _2_ MAC  --- 13 ack 60 [13a 2 0 800] ------- [0:0 2:0 32 2] [1 0] 1 0
s 1.029037574 _2_ MAC  --- 0 ACK 38 [0 0 0 0] 
r 1.029052574 _2_ AGT  --- 13 ack 60 [13a 2 0 800] ------- [0:0 2:0 32 2] [1 0] 1 0
s 1.029052574 _2_ AGT  --- 14 tcp 1540 [0 0 0 0] ------- [2:0 0:0 32 0] [3 0] 0 0
r 1.029052574 _2_ RTR  --- 14 tcp 1540 [0 0 0 0] ------- [2:0 0:0 32 0] [3 0] 0 0
s 1.029052574 _2_ RTR  --- 14 tcp 1560 [0 0 0 0] ------- [2:0 0:0 32 0] [3 0] 0 0
s 1.029052574 _2_ AGT  --- 15 tcp 1540 [0 0 0 0] ------- [2:0 0:0 32 0] [4 0] 0 0
r 1.029052574 _2_ RTR  --- 15 tcp 1540 [0 0 0 0] ------- [2:0 0:0 32 0] [4 0] 0 0
s 1.029052574 _2_ RTR  --- 15 tcp 1560 [0 0 0 0] ------- [2:0 0:0 32 0] [4 0] 0 0
r 1.029342288 _0_ MAC  --- 0 ACK 38 [0 0 0 0] 
s 1.029471574 _2_ MAC  --- 0 RTS 44 [350e 0 2 0] 
r 1.029824288 _0_ MAC  --- 0 RTS 44 [350e 0 2 0] 
s 1.029834288 _0_ MAC  --- 0 CTS 38 [33d4 2 0 0] 
r 1.030139002 _2_ MAC  --- 0 CTS 38 [33d4 2 0 0] 
s 1.030149002 _2_ MAC  --- 12 tcp 1618 [13a 0 2 800] ------- [2:0 0:0 32 0] [2 0] 0 0
r 1.043093717 _0_ MAC  --- 12 tcp 1560 [13a 0 2 800] ------- [2:0 0:0 32 0] [2 0] 1 0
s 1.043103717 _0_ MAC  --- 0 ACK 38 [0 2 0 0] 
r 1.043118717 _0_ AGT  --- 12 tcp 1560 [13a 0 2 800] ------- [2:0 0:0 32 0] [2 0] 1 0
s 1.043118717 _0_ AGT  --- 16 ack 40 [0 0 0 0] ------- [0:0 2:0 32 0] [2 0] 0 0
r 1.043118717 _0_ RTR  --- 16 ack 40 [0 0 0 0] ------- [0:0 2:0 32 0] [2 0] 0 0
s 1.043118717 _0_ RTR  --- 16 ack 60 [0 0 0 0] ------- [0:0 2:0 32 2] [2 0] 0 0
r 1.043408431 _2_ MAC  --- 0 ACK 38 [0 2 0 0] 
s 1.043678431 _2_ MAC  --- 0 RTS 44 [350e 0 2 0] 
r 1.044031145 _0_ MAC  --- 0 RTS 44 [350e 0 2 0] 
s 1.044041145 _0_ MAC  --- 0 CTS 38 [33d4 2 0 0] 
r 1.044345859 _2_ MAC  --- 0 CTS 38 [33d4 2 0 0] 
s 1.044355859 _2_ MAC  --- 14 tcp 1618 [13a 0 2 800] ------- [2:0 0:0 32 0] [3 0] 0 0
r 1.057300573 _0_ MAC  --- 14 tcp 1560 [13a 0 2 800] ------- [2:0 0:0 32 0] [3 0] 1 0
s 1.057310573 _0_ MAC  --- 0 ACK 38 [0 2 0 0] 
r 1.057325573 _0_ AGT  --- 14 tcp 1560 [13a 0 2 800] ------- [2:0 0:0 32 0] [3 0] 1 0
s 1.057325573 _0_ AGT  --- 17 ack 40 [0 0 0 0] ------- [0:0 2:0 32 0] [3 0] 0 0
r 1.057325573 _0_ RTR  --- 17 ack 40 [0 0 0 0] ------- [0:0 2:0 32 0] [3 0] 0 0
s 1.057325573 _0_ RTR  --- 17 ack 60 [0 0 0 0] ------- [0:0 2:0 32 2] [3 0] 0 0
r 1.057615287 _2_ MAC  --- 0 ACK 38 [0 2 0 0] 
s 1.057865287 _2_ MAC  --- 0 RTS 44 [350e 0 2 0] 
r 1.058218001 _0_ MAC  --- 0 RTS 44 [350e 0 2 0] 
s 1.058228001 _0_ MAC  --- 0 CTS 38 [33d4 2 0 0] 
r 1.058532715 _2_ MAC  --- 0 CTS 38 [33d4 2 0 0] 
s 1.058542715 _2_ MAC  --- 15 tcp 1618 [13a 0 2 800] ------- [2:0 0:0 32 0] [4 0] 0 0
r 1.071487429 _0_ MAC  --- 15 tcp 1560 [13a 0 2 800] ------- [2:0 0:0 32 0] [4 0] 1 0
s 1.071497429 _0_ MAC  --- 0 ACK 38 [0 2 0 0] 
r 1.071512429 _0_ AGT  --- 15 tcp 1560 [13a 0 2 800] ------- [2:0 0:0 32 0] [4 0] 1 0
s 1.071512429 _0_ AGT  --- 18 ack 40 [0 0 0 0] ------- [0:0 2:0 32 0] [4 0] 0 0
r 1.071512429 _0_ RTR  --- 18 ack 40 [0 0 0 0] ------- [0:0 2:0 32 0] [4 0] 0 0
s 1.071512429 _0_ RTR  --- 18 ack 60 [0 0 0 0] ------- [0:0 2:0 32 2] [4 0] 0 0
r 1.071802143 _2_ MAC  --- 0 ACK 38 [0 2 0 0] 
s 1.071891429 _0_ MAC  --- 0 RTS 44 [52e 1 0 0] 
r 1.072244176 _1_ MAC  --- 0 RTS 44 [52e 1 0 0] 
s 1.072254176 _1_ MAC  --- 0 CTS 38 [3f4 0 0 0] 
r 1.072558922 _0_ MAC  --- 0 CTS 38 [3f4 0 0 0] 
s 1.072568922 _0_ MAC  --- 0 ARP 86 [13a 1 0 806] ------- [REPLY 0/0 1/1]
r 1.073257669 _1_ MAC  --- 0 ARP 28 [13a 1 0 806] ------- [REPLY 0/0 1/1]
s 1.073267669 _1_ MAC  --- 0 ACK 38 [0 0 0 0] 
r 1.073572416 _0_ MAC  --- 0 ACK 38 [0 0 0 0] 
s 1.073681669 _1_ MAC  --- 0 RTS 44 [62e 0 1 0] 
r 1.074034416 _0_ MAC  --- 0 RTS 44 [62e 0 1 0] 
s 1.074044416 _0_ MAC  --- 0 CTS 38 [4f4 1 0 0] 
r 1.074349162 _1_ MAC  --- 0 CTS 38 [4f4 1 0 0] 
s 1.074359162 _1_ MAC  --- 5 tcp 118 [13a 0 1 800] ------- [1:1 0:2 32 0] [0 0] 0 0
r 1.075303909 _0_ MAC  --- 5 tcp 60 [13a 0 1 800] ------- [1:1 0:2 32 0] [0 0] 1 0
s 1.075313909 _0_ MAC  --- 0 ACK 38 [0 1 0 0] 
r 1.075328909 _0_ AGT  --- 5 tcp 60 [13a 0 1 800] ------- [1:1 0:2 32 0] [0 0] 1 0
s 1.075328909 _0_ AGT  --- 19 ack 40 [0 0 0 0] ------- [0:2 1:1 32 0] [0 0] 0 0
r 1.075328909 _0_ RTR  --- 19 ack 40 [0 0 0 0] ------- [0:2 1:1 32 0] [0 0] 0 0
r 1.075618655 _1_ MAC  --- 0 ACK 38 [0 1 0 0] 
s 1.075747909 _0_ MAC  --- 0 RTS 44 [62e 2 0 0] 
r 1.076100623 _2_ MAC  --- 0 RTS 44 [62e 2 0 0] 
s 1.076110623 _2_ MAC  --- 0 CTS 38 [4f4 0 0 0] 
r 1.076415337 _0_ MAC  --- 0 CTS 38 [4f4 0 0 0] 
s 1.076425337 _0_ MAC  --- 16 ack 118 [13a 2 0 800] ------- [0:0 2:0 32 2] [2 0] 0 0
r 1.077370051 _2_ MAC  --- 16 ack 60 [13a 2 0 800] ------- [0:0 2:0 32 2] [2 0] 1 0
s 1.077380051 _2_ MAC  --- 0 ACK 38 [0 0 0 0] 
r 1.077395051 _2_ AGT  --- 16 ack 60 [13a 2 0 800] ------- [0:0 2:0 32 2] [2 0] 1 0
s 1.077395051 _2_ AGT  --- 20 tcp 1540 [0 0 0 0] ------- [2:0 0:0 32 0] [5 0] 0 0
r 1.077395051 _2_ RTR  --- 20 tcp 1540 [0 0 0 0] ------- [2:0 0:0 32 0] [5 0] 0 0
s 1.077395051 _2_ RTR  --- 20 tcp 1560 [0 0 0 0] ------- [2:0 0:0 32 0] [5 0] 0 0
s 1.077395051 _2_ AGT  --- 21 tcp 1540 [0 0 0 0] ------- [2:0 0:0 32 0] [6 0] 0 0
r 1.077395051 _2_ RTR  --- 21 tcp 1540 [0 0 0 0] ------- [2:0 0:0 32 0] [6 0] 0 0
s 1.077395051 _2_ RTR  --- 21 tcp 1560 [0 0 0 0] ------- [2:0 0:0 32 0] [6 0] 0 0
r 1.077684765 _0_ MAC  --- 0 ACK 38 [0 0 0 0] 
s 1.078234765 _0_ MAC  --- 0 RTS 44 [62e 2 0 0] 
r 1.078587479 _2_ MAC  --- 0 RTS 44 [62e 2 0 0] 
s 1.078597479 _2_ MAC  --- 0 CTS 38 [4f4 0 0 0] 
r 1.078902193 _0_ MAC  --- 0 CTS 38 [4f4 0 0 0] 
s 1.078912193 _0_ MAC  --- 17 ack 118 [13a 2 0 800] ------- [0:0 2:0 32 2] [3 0] 0 0
r 1.079856907 _2_ MAC  --- 17 ack 60 [13a 2 0 800] ------- [0:0 2:0 32 2] [3 0] 1 0
s 1.079866907 _2_ MAC  --- 0 ACK 38 [0 0 0 0] 
r 1.079881907 _2_ AGT  --- 17 ack 60 [13a 2 0 800] ------- [0:0 2:0 32 2] [3 0] 1 0
s 1.079881907 _2_ AGT  --- 22 tcp 1540 [0 0 0 0] ------- [2:0 0:0 32 0] [7 0] 0 0
r 1.079881907 _2_ RTR  --- 22 tcp 1540 [0 0 0 0] ------- [2:0 0:0 32 0] [7 0] 0 0
s 1.079881907 _2_ RTR  --- 22 tcp 1560 [0 0 0 0] ------- [2:0 0:0 32 0] [7 0] 0 0
s 1.079881907 _2_ AGT  --- 23 tcp 1540 [0 0 0 0] ------- [2:0 0:0 32 0] [8 0] 0 0
r 1.079881907 _2_ RTR  --- 23 tcp 1540 [0 0 0 0] ------- [2:0 0:0 32 0] [8 0] 0 0
s 1.079881907 _2_ RTR  --- 23 tcp 1560 [0 0 0 0] ------- [2:0 0:0 32 0] [8 0] 0 0
r 1.080171621 _0_ MAC  --- 0 ACK 38 [0 0 0 0] 
s 1.080260907 _2_ MAC  --- 0 RTS 44 [350e 0 2 0] 
r 1.080613621 _0_ MAC  --- 0 RTS 44 [350e 0 2 0] 
s 1.080623621 _0_ MAC  --- 0 CTS 38 [33d4 2 0 0] 
r 1.080928335 _2_ MAC  --- 0 CTS 38 [33d4 2 0 0] 
s 1.080938335 _2_ MAC  --- 20 tcp 1618 [13a 0 2 800] ------- [2:0 0:0 32 0] [5 0] 0 0
r 1.093883049 _0_ MAC  --- 20 tcp 1560 [13a 0 2 800] ------- [2:0 0:0 32 0] [5 0] 1 0
s 1.093893049 _0_ MAC  --- 0 ACK 38 [0 2 0 0] 
r 1.093908049 _0_ AGT  --- 20 tcp 1560 [13a 0 2 800] ------- [2:0 0:0 32 0] [5 0] 1 0
s 1.093908049 _0_ AGT  --- 24 ack 40 [0 0 0 0] ------- [0:0 2:0 32 0] [5 0] 0 0
r 1.093908049 _0_ RTR  --- 24 ack 40 [0 0 0 0] ------- [0:0 2:0 32 0] [5 0] 0 0
s 1.093908049 _0_ RTR  --- 24 ack 60 [0 0 0 0] ------- [0:0 2:0 32 2] [5 0] 0 0
r 1.094197763 _2_ MAC  --- 0 ACK 38 [0 2 0 0] 
s 1.094427763 _2_ MAC  --- 0 RTS 44 [350e 0 2 0] 
r 1.094780478 _0_ MAC  --- 0 RTS 44 [350e 0 2 0] 
s 1.094790478 _0_ MAC  --- 0 CTS 38 [33d4 2 0 0] 
r 1.095095192 _2_ MAC  --- 0 CTS 38 [33d4 2 0 0] 
s 1.095105192 _2_ MAC  --- 21 tcp 1618 [13a 0 2 800] ------- [2:0 0:0 32 0] [6 0] 0 0
r 1.108049906 _0_ MAC  --- 21 tcp 1560 [13a 0 2 800] ------- [2:0 0:0 32 0] [6 0] 1 0
s 1.108059906 _0_ MAC  --- 0 ACK 38 [0 2 0 0] 
r 1.108074906 _0_ AGT  --- 21 tcp 1560 [13a 0 2 800] ------- [2:0 0:0 32 0] [6 0] 1 0
s 1.108074906 _0_ AGT  --- 25 ack 40 [0 0 0 0] ------- [0:0 2:0 32 0] [6 0] 0 0
r 1.108074906 _0_ RTR  --- 25 ack 40 [0 0 0 0] ------- [0:0 2:0 32 0] [6 0] 0 0
s 1.108074906 _0_ RTR  --- 25 ack 60 [0 0 0 0] ------- [0:0 2:0 32 2] [6 0] 0 0
r 1.108364620 _2_ MAC  --- 0 ACK 38 [0 2 0 0] 
s 1.108493906 _0_ MAC  --- 0 RTS 44 [62e 2 0 0] 
r 1.108846620 _2_ MAC  --- 0 RTS 44 [62e 2 0 0] 
s 1.108856620 _2_ MAC  --- 0 CTS 38 [4f4 0 0 0] 
r 1.109161334 _0_ MAC  --- 0 CTS 38 [4f4 0 0 0] 
s 1.109171334 _0_ MAC  --- 18 ack 118 [13a 2 0 800] ------- [0:0 2:0 32 2] [4 0] 0 0
r 1.110116048 _2_ MAC  --- 18 ack 60 [13a 2 0 800] ------- [0:0 2:0 32 2] [4 0] 1 0
s 1.110126048 _2_ MAC  --- 0 ACK 38 [0 0 0 0] 
r 1.110141048 _2_ AGT  --- 18 ack 60 [13a 2 0 800] ------- [0:0 2:0 32 2] [4 0] 1 0
s 1.110141048 _2_ AGT  --- 26 tcp 1540 [0 0 0 0] ------- [2:0 0:0 32 0] [9 0] 0 0
r 1.110141048 _2_ RTR  --- 26 tcp 1540 [0 0 0 0] ------- [2:0 0:0 32 0] [9 0] 0 0
s 1.110141048 _2_ RTR  --- 26 tcp 1560 [0 0 0 0] ------- [2:0 0:0 32 0] [9 0] 0 0
s 1.110141048 _2_ AGT  --- 27 tcp 1540 [0 0 0 0] ------- [2:0 0:0 32 0] [10 0] 0 0
r 1.110141048 _2_ RTR  --- 27 tcp 1540 [0 0 0 0] ------- [2:0 0:0 32 0] [10 0] 0 0
s 1.110141048 _2_ RTR  --- 27 tcp 1560 [0 0 0 0] ------- [2:0 0:0 32 0] [10 0] 0 0
r 1.110430762 _0_ MAC  --- 0 ACK 38 [0 0 0 0] 
s 1.110700048 _2_ MAC  --- 0 RTS 44 [350e 0 2 0] 
r 1.111052762 _0_ MAC  --- 0 RTS 44 [350e 0 2 0] 
s 1.111062762 _0_ MAC  --- 0 CTS 38 [33d4 2 0 0] 
r 1.111367476 _2_ MAC  --- 0 CTS 38 [33d4 2 0 0] 
s 1.111377476 _2_ MAC  --- 22 tcp 1618 [13a 0 2 800] ------- [2:0 0:0 32 0] [7 0] 0 0
r 1.124322190 _0_ MAC  --- 22 tcp 1560 [13a 0 2 800] ------- [2:0 0:0 32 0] [7 0] 1 0
s 1.124332190 _0_ MAC  --- 0 ACK 38 [0 2 0 0] 
r 1.124347190 _0_ AGT  --- 22 tcp 1560 [13a 0 2 800] ------- [2:0 0:0 32 0] [7 0] 1 0
s 1.124347190 _0_ AGT  --- 28 ack 40 [0 0 0 0] ------- [0:0 2:0 32 0] [7 0] 0 0
r 1.124347190 _0_ RTR  --- 28 ack 40 [0 0 0 0] ------- [0:0 2:0 32 0] [7 0] 0 0
s 1.124347190 _0_ RTR  --- 28 ack 60 [0 0 0 0] ------- [0:0 2:0 32 2] [7 0] 0 0
r 1.124636904 _2_ MAC  --- 0 ACK 38 [0 2 0 0] 
s 1.124686904 _2_ MAC  --- 0 RTS 44 [350e 0 2 0] 
r 1.125039618 _0_ MAC  --- 0 RTS 44 [350e 0 2 0] 
s 1.125049618 _0_ MAC  --- 0 CTS 38 [33d4 2 0 0] 
r 1.125354332 _2_ MAC  --- 0 CTS 38 [33d4 2 0 0] 
s 1.125364332 _2_ MAC  --- 23 tcp 1618 [13a 0 2 800] ------- [2:0 0:0 32 0] [8 0] 0 0
r 1.138309046 _0_ MAC  --- 23 tcp 1560 [13a 0 2 800] ------- [2:0 0:0 32 0] [8 0] 1 0
s 1.138319046 _0_ MAC  --- 0 ACK 38 [0 2 0 0] 
r 1.138334046 _0_ AGT  --- 23 tcp 1560 [13a 0 2 800] ------- [2:0 0:0 32 0] [8 0] 1 0
s 1.138334046 _0_ AGT  --- 29 ack 40 [0 0 0 0] ------- [0:0 2:0 32 0] [8 0] 0 0
r 1.138334046 _0_ RTR  --- 29 ack 40 [0 0 0 0] ------- [0:0 2:0 32 0] [8 0] 0 0
s 1.138334046 _0_ RTR  --- 29 ack 60 [0 0 0 0] ------- [0:0 2:0 32 2] [8 0] 0 0
r 1.138623760 _2_ MAC  --- 0 ACK 38 [0 2 0 0] 
s 1.138893760 _2_ MAC  --- 0 RTS 44 [350e 0 2 0] 
r 1.139246474 _0_ MAC  --- 0 RTS 44 [350e 0 2 0] 
s 1.139256474 _0_ MAC  --- 0 CTS 38 [33d4 2 0 0] 
r 1.139561189 _2_ MAC  --- 0 CTS 38 [33d4 2 0 0] 
s 1.139571189 _2_ MAC  --- 26 tcp 1618 [13a 0 2 800] ------- [2:0 0:0 32 0] [9 0] 0 0
r 1.152515903 _0_ MAC  --- 26 tcp 1560 [13a 0 2 800] ------- [2:0 0:0 32 0] [9 0] 1 0
s 1.152525903 _0_ MAC  --- 0 ACK 38 [0 2 0 0] 
r 1.152540903 _0_ AGT  --- 26 tcp 1560 [13a 0 2 800] ------- [2:0 0:0 32 0] [9 0] 1 0
s 1.152540903 _0_ AGT  --- 30 ack 40 [0 0 0 0] ------- [0:0 2:0 32 0] [9 0] 0 0
r 1.152540903 _0_ RTR  --- 30 ack 40 [0 0 0 0] ------- [0:0 2:0 32 0] [9 0] 0 0
s 1.152540903 _0_ RTR  --- 30 ack 60 [0 0 0 0] ------- [0:0 2:0 32 2] [9 0] 0 0
r 1.152830617 _2_ MAC  --- 0 ACK 38 [0 2 0 0] 
s 1.152939903 _0_ MAC  --- 0 RTS 44 [62e 2 0 0] 
r 1.153292617 _2_ MAC  --- 0 RTS 44 [62e 2 0 0] 
s 1.153302617 _2_ MAC  --- 0 CTS 38 [4f4 0 0 0] 
r 1.153607331 _0_ MAC  --- 0 CTS 38 [4f4 0 0 0] 
s 1.153617331 _0_ MAC  --- 24 ack 118 [13a 2 0 800] ------- [0:0 2:0 32 2] [5 0] 0 0
r 1.154562045 _2_ MAC  --- 24 ack 60 [13a 2 0 800] ------- [0:0 2:0 32 2] [5 0] 1 0
s 1.154572045 _2_ MAC  --- 0 ACK 38 [0 0 0 0] 
r 1.154587045 _2_ AGT  --- 24 ack 60 [13a 2 0 800] ------- [0:0 2:0 32 2] [5 0] 1 0
s 1.154587045 _2_ AGT  --- 31 tcp 1540 [0 0 0 0] ------- [2:0 0:0 32 0] [11 0] 0 0
r 1.154587045 _2_ RTR  --- 31 tcp 1540 [0 0 0 0] ------- [2:0 0:0 32 0] [11 0] 0 0
s 1.154587045 _2_ RTR  --- 31 tcp 1560 [0 0 0 0] ------- [2:0 0:0 32 0] [11 0] 0 0
s 1.154587045 _2_ AGT  --- 32 tcp 1540 [0 0 0 0] ------- [2:0 0:0 32 0] [12 0] 0 0
r 1.154587045 _2_ RTR  --- 32 tcp 1540 [0 0 0 0] ------- [2:0 0:0 32 0] [12 0] 0 0
s 1.154587045 _2_ RTR  --- 32 tcp 1560 [0 0 0 0] ------- [2:0 0:0 32 0] [12 0] 0 0
r 1.154876759 _0_ MAC  --- 0 ACK 38 [0 0 0 0] 
s 1.155086759 _0_ MAC  --- 0 RTS 44 [62e 2 0 0] 
r 1.155439473 _2_ MAC  --- 0 RTS 44 [62e 2 0 0] 
s 1.155449473 _2_ MAC  --- 0 CTS 38 [4f4 0 0 0] 
r 1.155754187 _0_ MAC  --- 0 CTS 38 [4f4 0 0 0] 
s 1.155764187 _0_ MAC  --- 25 ack 118 [13a 2 0 800] ------- [0:0 2:0 32 2] [6 0] 0 0
r 1.156708901 _2_ MAC  --- 25 ack 60 [13a 2 0 800] ------- [0:0 2:0 32 2] [6 0] 1 0
s 1.156718901 _2_ MAC  --- 0 ACK 38 [0 0 0 0] 
r 1.156733901 _2_ AGT  --- 25 ack 60 [13a 2 0 800] ------- [0:0 2:0 32 2] [6 0] 1 0
s 1.156733901 _2_ AGT  --- 33 tcp 1540 [0 0 0 0] ------- [2:0 0:0 32 0] [13 0] 0 0
r 1.156733901 _2_ RTR  --- 33 tcp 1540 [0 0 0 0] ------- [2:0 0:0 32 0] [13 0] 0 0
s 1.156733901 _2_ RTR  --- 33 tcp 1560 [0 0 0 0] ------- [2:0 0:0 32 0] [13 0] 0 0
s 1.156733901 _2_ AGT  --- 34 tcp 1540 [0 0 0 0] ------- [2:0 0:0 32 0] [14 0] 0 0
r 1.156733901 _2_ RTR  --- 34 tcp 1540 [0 0 0 0] ------- [2:0 0:0 32 0] [14 0] 0 0
s 1.156733901 _2_ RTR  --- 34 tcp 1560 [0 0 0 0] ------- [2:0 0:0 32 0] [14 0] 0 0
r 1.157023615 _0_ MAC  --- 0 ACK 38 [0 0 0 0] 
s 1.157192901 _2_ MAC  --- 0 RTS 44 [350e 0 2 0] 
r 1.157545615 _0_ MAC  --- 0 RTS 44 [350e 0 2 0] 
s 1.157555615 _0_ MAC  --- 0 CTS 38 [33d4 2 0 0] 
r 1.157860329 _2_ MAC  --- 0 CTS 38 [33d4 2 0 0] 
s 1.157870329 _2_ MAC  --- 27 tcp 1618 [13a 0 2 800] ------- [2:0 0:0 32 0] [10 0] 0 0
r 1.170815043 _0_ MAC  --- 27 tcp 1560 [13a 0 2 800] ------- [2:0 0:0 32 0] [10 0] 1 0
s 1.170825043 _0_ MAC  --- 0 ACK 38 [0 2 0 0] 
r 1.170840043 _0_ AGT  --- 27 tcp 1560 [13a 0 2 800] ------- [2:0 0:0 32 0] [10 0] 1 0
s 1.170840043 _0_ AGT  --- 35 ack 40 [0 0 0 0] ------- [0:0 2:0 32 0] [10 0] 0 0
r 1.170840043 _0_ RTR  --- 35 ack 40 [0 0 0 0] ------- [0:0 2:0 32 0] [10 0] 0 0
s 1.170840043 _0_ RTR  --- 35 ack 60 [0 0 0 0] ------- [0:0 2:0 32 2] [10 0] 0 0
r 1.171129757 _2_ MAC  --- 0 ACK 38 [0 2 0 0] 
s 1.171259757 _2_ MAC  --- 0 RTS 44 [350e 0 2 0] 
r 1.171612471 _0_ MAC  --- 0 RTS 44 [350e 0 2 0] 
s 1.171622471 _0_ MAC  --- 0 CTS 38 [33d4 2 0 0] 
r 1.171927185 _2_ MAC  --- 0 CTS 38 [33d4 2 0 0] 
s 1.171937185 _2_ MAC  --- 31 tcp 1618 [13a 0 2 800] ------- [2:0 0:0 32 0] [11 0] 0 0
r 1.184881899 _0_ MAC  --- 31 tcp 1560 [13a 0 2 800] ------- [2:0 0:0 32 0] [11 0] 1 0
s 1.184891899 _0_ MAC  --- 0 ACK 38 [0 2 0 0] 
r 1.184906899 _0_ AGT  --- 31 tcp 1560 [13a 0 2 800] ------- [2:0 0:0 32 0] [11 0] 1 0
s 1.184906899 _0_ AGT  --- 36 ack 40 [0 0 0 0] ------- [0:0 2:0 32 0] [11 0] 0 0
r 1.184906899 _0_ RTR  --- 36 ack 40 [0 0 0 0] ------- [0:0 2:0 32 0] [11 0] 0 0
s 1.184906899 _0_ RTR  --- 36 ack 60 [0 0 0 0] ------- [0:0 2:0 32 2] [11 0] 0 0
r 1.185196614 _2_ MAC  --- 0 ACK 38 [0 2 0 0] 
s 1.185285899 _0_ MAC  --- 0 RTS 44 [62e 2 0 0] 
r 1.185638614 _2_ MAC  --- 0 RTS 44 [62e 2 0 0] 
s 1.185648614 _2_ MAC  --- 0 CTS 38 [4f4 0 0 0] 
r 1.185953328 _0_ MAC  --- 0 CTS 38 [4f4 0 0 0] 
s 1.185963328 _0_ MAC  --- 28 ack 118 [13a 2 0 800] ------- [0:0 2:0 32 2] [7 0] 0 0
r 1.186908042 _2_ MAC  --- 28 ack 60 [13a 2 0 800] ------- [0:0 2:0 32 2] [7 0] 1 0
s 1.186918042 _2_ MAC  --- 0 ACK 38 [0 0 0 0] 
r 1.186933042 _2_ AGT  --- 28 ack 60 [13a 2 0 800] ------- [0:0 2:0 32 2] [7 0] 1 0
s 1.186933042 _2_ AGT  --- 37 tcp 1540 [0 0 0 0] ------- [2:0 0:0 32 0] [15 0] 0 0
r 1.186933042 _2_ RTR  --- 37 tcp 1540 [0 0 0 0] ------- [2:0 0:0 32 0] [15 0] 0 0
s 1.186933042 _2_ RTR  --- 37 tcp 1560 [0 0 0 0] ------- [2:0 0:0 32 0] [15 0] 0 0
s 1.186933042 _2_ AGT  --- 38 tcp 1540 [0 0 0 0] ------- [2:0 0:0 32 0] [16 0] 0 0
r 1.186933042 _2_ RTR  --- 38 tcp 1540 [0 0 0 0] ------- [2:0 0:0 32 0] [16 0] 0 0
s 1.186933042 _2_ RTR  --- 38 tcp 1560 [0 0 0 0] ------- [2:0 0:0 32 0] [16 0] 0 0
r 1.187222756 _0_ MAC  --- 0 ACK 38 [0 0 0 0] 
s 1.187272756 _0_ MAC  --- 0 RTS 44 [62e 2 0 0] 
r 1.187625470 _2_ MAC  --- 0 RTS 44 [62e 2 0 0] 
s 1.187635470 _2_ MAC  --- 0 CTS 38 [4f4 0 0 0] 
r 1.187940184 _0_ MAC  --- 0 CTS 38 [4f4 0 0 0] 
s 1.187950184 _0_ MAC  --- 29 ack 118 [13a 2 0 800] ------- [0:0 2:0 32 2] [8 0] 0 0
r 1.188894898 _2_ MAC  --- 29 ack 60 [13a 2 0 800] ------- [0:0 2:0 32 2] [8 0] 1 0
s 1.188904898 _2_ MAC  --- 0 ACK 38 [0 0 0 0] 
r 1.188919898 _2_ AGT  --- 29 ack 60 [13a 2 0 800] ------- [0:0 2:0 32 2] [8 0] 1 0
s 1.188919898 _2_ AGT  --- 39 tcp 1540 [0 0 0 0] ------- [2:0 0:0 32 0] [17 0] 0 0
r 1.188919898 _2_ RTR  --- 39 tcp 1540 [0 0 0 0] ------- [2:0 0:0 32 0] [17 0] 0 0
s 1.188919898 _2_ RTR  --- 39 tcp 1560 [0 0 0 0] ------- [2:0 0:0 32 0] [17 0] 0 0
s 1.188919898 _2_ AGT  --- 40 tcp 1540 [0 0 0 0] ------- [2:0 0:0 32 0] [18 0] 0 0
r 1.188919898 _2_ RTR  --- 40 tcp 1540 [0 0 0 0] ------- [2:0 0:0 32 0] [18 0] 0 0
s 1.188919898 _2_ RTR  --- 40 tcp 1560 [0 0 0 0] ------- [2:0 0:0 32 0] [18 0] 0 0
r 1.189209612 _0_ MAC  --- 0 ACK 38 [0 0 0 0] 
s 1.189499612 _0_ MAC  --- 0 RTS 44 [62e 2 0 0] 
r 1.189852326 _2_ MAC  --- 0 RTS 44 [62e 2 0 0] 
s 1.189862326 _2_ MAC  --- 0 CTS 38 [4f4 0 0 0] 
r 1.190167040 _0_ MAC  --- 0 CTS 38 [4f4 0 0 0] 
s 1.190177040 _0_ MAC  --- 30 ack 118 [13a 2 0 800] ------- [0:0 2:0 32 2] [9 0] 0 0
r 1.191121754 _2_ MAC  --- 30 ack 60 [13a 2 0 800] ------- [0:0 2:0 32 2] [9 0] 1 0
s 1.191131754 _2_ MAC  --- 0 ACK 38 [0 0 0 0] 
r 1.191146754 _2_ AGT  --- 30 ack 60 [13a 2 0 800] ------- [0:0 2:0 32 2] [9 0] 1 0
s 1.191146754 _2_ AGT  --- 41 tcp 1540 [0 0 0 0] ------- [2:0 0:0 32 0] [19 0] 0 0
r 1.191146754 _2_ RTR  --- 41 tcp 1540 [0 0 0 0] ------- [2:0 0:0 32 0] [19 0] 0 0
s 1.191146754 _2_ RTR  --- 41 tcp 1560 [0 0 0 0] ------- [2:0 0:0 32 0] [19 0] 0 0
s 1.191146754 _2_ AGT  --- 42 tcp 1540 [0 0 0 0] ------- [2:0 0:0 32 0] [20 0] 0 0
r 1.191146754 _2_ RTR  --- 42 tcp 1540 [0 0 0 0] ------- [2:0 0:0 32 0] [20 0] 0 0
s 1.191146754 _2_ RTR  --- 42 tcp 1560 [0 0 0 0] ------- [2:0 0:0 32 0] [20 0] 0 0
r 1.191436468 _0_ MAC  --- 0 ACK 38 [0 0 0 0] 
s 1.191525754 _2_ MAC  --- 0 RTS 44 [350e 0 2 0] 
r 1.191878468 _0_ MAC  --- 0 RTS 44 [350e 0 2 0] 
s 1.191888468 _0_ MAC  --- 0 CTS 38 [33d4 2 0 0] 
r 1.192193182 _2_ MAC  --- 0 CTS 38 [33d4 2 0 0] 
s 1.192203182 _2_ MAC  --- 32 tcp 1618 [13a 0 2 800] ------- [2:0 0:0 32 0] [12 0] 0 0
r 1.205147896 _0_ MAC  --- 32 tcp 1560 [13a 0 2 800] ------- [2:0 0:0 32 0] [12 0] 1 0
s 1.205157896 _0_ MAC  --- 0 ACK 38 [0 2 0 0] 
r 1.205172896 _0_ AGT  --- 32 tcp 1560 [13a 0 2 800] ------- [2:0 0:0 32 0] [12 0] 1 0
s 1.205172896 _0_ AGT  --- 43 ack 40 [0 0 0 0] ------- [0:0 2:0 32 0] [12 0] 0 0
r 1.205172896 _0_ RTR  --- 43 ack 40 [0 0 0 0] ------- [0:0 2:0 32 0] [12 0] 0 0
s 1.205172896 _0_ RTR  --- 43 ack 60 [0 0 0 0] ------- [0:0 2:0 32 2] [12 0] 0 0
r 1.205462610 _2_ MAC  --- 0 ACK 38 [0 2 0 0] 
s 1.205791896 _0_ MAC  --- 0 RTS 44 [62e 2 0 0] 
s 1.205792610 _2_ MAC  --- 0 RTS 44 [350e 0 2 0] 
s 1.207199325 _0_ MAC  --- 0 RTS 44 [62e 2 0 0] 
r 1.207552039 _2_ MAC  --- 0 RTS 44 [62e 2 0 0] 
s 1.207562039 _2_ MAC  --- 0 CTS 38 [4f4 0 0 0] 
r 1.207866753 _0_ MAC  --- 0 CTS 38 [4f4 0 0 0] 
s 1.207876753 _0_ MAC  --- 35 ack 118 [13a 2 0 800] ------- [0:0 2:0 32 2] [10 0] 0 0
r 1.208821467 _2_ MAC  --- 35 ack 60 [13a 2 0 800] ------- [0:0 2:0 32 2] [10 0] 1 0
s 1.208831467 _2_ MAC  --- 0 ACK 38 [0 0 0 0] 
r 1.208846467 _2_ AGT  --- 35 ack 60 [13a 2 0 800] ------- [0:0 2:0 32 2] [10 0] 1 0
s 1.208846467 _2_ AGT  --- 44 tcp 1540 [0 0 0 0] ------- [2:0 0:0 32 0] [21 0] 0 0
r 1.208846467 _2_ RTR  --- 44 tcp 1540 [0 0 0 0] ------- [2:0 0:0 32 0] [21 0] 0 0
s 1.208846467 _2_ RTR  --- 44 tcp 1560 [0 0 0 0] ------- [2:0 0:0 32 0] [21 0] 0 0
s 1.208846467 _2_ AGT  --- 45 tcp 1540 [0 0 0 0] ------- [2:0 0:0 32 0] [22 0] 0 0
r 1.208846467 _2_ RTR  --- 45 tcp 1540 [0 0 0 0] ------- [2:0 0:0 32 0] [22 0] 0 0
s 1.208846467 _2_ RTR  --- 45 tcp 1560 [0 0 0 0] ------- [2:0 0:0 32 0] [22 0] 0 0
r 1.209136181 _0_ MAC  --- 0 ACK 38 [0 0 0 0] 
s 1.209345467 _2_ MAC  --- 0 RTS 44 [350e 0 2 0] 
r 1.209698181 _0_ MAC  --- 0 RTS 44 [350e 0 2 0] 
s 1.209708181 _0_ MAC  --- 0 CTS 38 [33d4 2 0 0] 
r 1.210012895 _2_ MAC  --- 0 CTS 38 [33d4 2 0 0] 
s 1.210022895 _2_ MAC  --- 33 tcp 1618 [13a 0 2 800] ------- [2:0 0:0 32 0] [13 0] 0 0
r 1.222967609 _0_ MAC  --- 33 tcp 1560 [13a 0 2 800] ------- [2:0 0:0 32 0] [13 0] 1 0
s 1.222977609 _0_ MAC  --- 0 ACK 38 [0 2 0 0] 
r 1.222992609 _0_ AGT  --- 33 tcp 1560 [13a 0 2 800] ------- [2:0 0:0 32 0] [13 0] 1 0
s 1.222992609 _0_ AGT  --- 46 ack 40 [0 0 0 0] ------- [0:0 2:0 32 0] [13 0] 0 0
r 1.222992609 _0_ RTR  --- 46 ack 40 [0 0 0 0] ------- [0:0 2:0 32 0] [13 0] 0 0
s 1.222992609 _0_ RTR  --- 46 ack 60 [0 0 0 0] ------- [0:0 2:0 32 2] [13 0] 0 0
r 1.223282323 _2_ MAC  --- 0 ACK 38 [0 2 0 0] 
s 1.223431609 _0_ MAC  --- 0 RTS 44 [62e 2 0 0] 
r 1.223784323 _2_ MAC  --- 0 RTS 44 [62e 2 0 0] 
s 1.223794323 _2_ MAC  --- 0 CTS 38 [4f4 0 0 0] 
r 1.224099037 _0_ MAC  --- 0 CTS 38 [4f4 0 0 0] 
s 1.224109037 _0_ MAC  --- 36 ack 118 [13a 2 0 800] ------- [0:0 2:0 32 2] [11 0] 0 0
r 1.225053751 _2_ MAC  --- 36 ack 60 [13a 2 0 800] ------- [0:0 2:0 32 2] [11 0] 1 0
s 1.225063751 _2_ MAC  --- 0 ACK 38 [0 0 0 0] 
r 1.225078751 _2_ AGT  --- 36 ack 60 [13a 2 0 800] ------- [0:0 2:0 32 2] [11 0] 1 0
s 1.225078751 _2_ AGT  --- 47 tcp 1540 [0 0 0 0] ------- [2:0 0:0 32 0] [23 0] 0 0
r 1.225078751 _2_ RTR  --- 47 tcp 1540 [0 0 0 0] ------- [2:0 0:0 32 0] [23 0] 0 0
s 1.225078751 _2_ RTR  --- 47 tcp 1560 [0 0 0 0] ------- [2:0 0:0 32 0] [23 0] 0 0
s 1.225078751 _2_ AGT  --- 48 tcp 1540 [0 0 0 0] ------- [2:0 0:0 32 0] [24 0] 0 0
r 1.225078751 _2_ RTR  --- 48 tcp 1540 [0 0 0 0] ------- [2:0 0:0 32 0] [24 0] 0 0