n -t * -s 0  -x 318 -y 375 -Z 0 -z 20  -v circle -c black
n -t * -s 1  -x 456 -y 373 -Z 0 -z 20  -v circle -c black
n -t * -s 2  -x 500 -y 232 -Z 0 -z 20  -v circle -c black
n -t * -s 3  -x 524 -y 451 -Z 0 -z 20  -v circle -c black
V -t * -v 1.0a5 -a 0
W -t * -x 624 -y 551
A -t * -n 1 -p 0 -o 0x7fffffff -c 30 -a 1
A -t * -h 1 -m 1073741823 -s 0
+ -t 0.005090888 -s 0 -d -1 -p message -e 32 -c 2 -a 0 -i 0 -k RTR 
- -t 0.005090888 -s 0 -d -1 -p message -e 32 -c 2 -a 0 -i 0 -k RTR
h -t 0.005090888 -s 0 -d -1 -p message -e 32 -c 2 -a 0 -i 0 -k RTR
+ -t 0.005325888 -s 0 -d -1 -p message -e 90 -c 2 -a 0 -i 0 -k MAC 
- -t 0.005325888 -s 0 -d -1 -p message -e 90 -c 2 -a 0 -i 0 -k MAC
h -t 0.005325888 -s 0 -d -1 -p message -e 90 -c 2 -a 0 -i 0 -k MAC
r -t 0.006046348 -s 1 -d -1 -p message -e 32 -c 2 -a 0 -i 0 -k MAC
r -t 0.006046620 -s 3 -d -1 -p message -e 32 -c 2 -a 0 -i 0 -k MAC
r -t 0.006046660 -s 2 -d -1 -p message -e 32 -c 2 -a 0 -i 0 -k MAC
r -t 0.006071348 -s 1 -d -1 -p message -e 32 -c 2 -a 0 -i 0 -k RTR
r -t 0.006071620 -s 3 -d -1 -p message -e 32 -c 2 -a 0 -i 0 -k RTR
r -t 0.006071660 -s 2 -d -1 -p message -e 32 -c 2 -a 0 -i 0 -k RTR
+ -t 0.030755339 -s 2 -d -1 -p message -e 32 -c 2 -a 0 -i 1 -k RTR 
- -t 0.030755339 -s 2 -d -1 -p message -e 32 -c 2 -a 0 -i 1 -k RTR
h -t 0.030755339 -s 2 -d -1 -p message -e 32 -c 2 -a 0 -i 1 -k RTR
+ -t 0.031090339 -s 2 -d -1 -p message -e 90 -c 2 -a 0 -i 1 -k MAC 
- -t 0.031090339 -s 2 -d -1 -p message -e 90 -c 2 -a 0 -i 1 -k MAC
h -t 0.031090339 -s 2 -d -1 -p message -e 90 -c 2 -a 0 -i 1 -k MAC
r -t 0.031810831 -s 1 -d -1 -p message -e 32 -c 2 -a 0 -i 1 -k MAC
r -t 0.031811073 -s 3 -d -1 -p message -e 32 -c 2 -a 0 -i 1 -k MAC
r -t 0.031811110 -s 0 -d -1 -p message -e 32 -c 2 -a 0 -i 1 -k MAC
r -t 0.031835831 -s 1 -d -1 -p message -e 32 -c 2 -a 0 -i 1 -k RTR
r -t 0.031836073 -s 3 -d -1 -p message -e 32 -c 2 -a 0 -i 1 -k RTR
r -t 0.031836110 -s 0 -d -1 -p message -e 32 -c 2 -a 0 -i 1 -k RTR
+ -t 0.177886797 -s 3 -d -1 -p message -e 32 -c 2 -a 0 -i 2 -k RTR 
- -t 0.177886797 -s 3 -d -1 -p message -e 32 -c 2 -a 0 -i 2 -k RTR
h -t 0.177886797 -s 3 -d -1 -p message -e 32 -c 2 -a 0 -i 2 -k RTR
+ -t 0.178121797 -s 3 -d -1 -p message -e 90 -c 2 -a 0 -i 2 -k MAC 
- -t 0.178121797 -s 3 -d -1 -p message -e 90 -c 2 -a 0 -i 2 -k MAC
h -t 0.178121797 -s 3 -d -1 -p message -e 90 -c 2 -a 0 -i 2 -k MAC
r -t 0.178842142 -s 1 -d -1 -p message -e 32 -c 2 -a 0 -i 2 -k MAC
r -t 0.178842529 -s 0 -d -1 -p message -e 32 -c 2 -a 0 -i 2 -k MAC
r -t 0.178842531 -s 2 -d -1 -p message -e 32 -c 2 -a 0 -i 2 -k MAC
r -t 0.178867142 -s 1 -d -1 -p message -e 32 -c 2 -a 0 -i 2 -k RTR
r -t 0.178867529 -s 0 -d -1 -p message -e 32 -c 2 -a 0 -i 2 -k RTR
r -t 0.178867531 -s 2 -d -1 -p message -e 32 -c 2 -a 0 -i 2 -k RTR
+ -t 1.000000000 -s 0 -d -1 -p cbr -e 1000 -c 2 -a 0 -i 3 -k AGT 
- -t 1.000000000 -s 0 -d -1 -p cbr -e 1000 -c 2 -a 0 -i 3 -k AGT
h -t 1.000000000 -s 0 -d -1 -p cbr -e 1000 -c 2 -a 0 -i 3 -k AGT
+ -t 1.000000000 -s 0 -d 2 -p cbr -e 1020 -c 2 -a 0 -i 3 -k RTR 
- -t 1.000000000 -s 0 -d 2 -p cbr -e 1020 -c 2 -a 0 -i 3 -k RTR
h -t 1.000000000 -s 0 -d 2 -p cbr -e 1020 -c 2 -a 0 -i 3 -k RTR
+ -t 1.000000000 -s 1 -d -1 -p cbr -e 1000 -c 2 -a 0 -i 4 -k AGT 
- -t 1.000000000 -s 1 -d -1 -p cbr -e 1000 -c 2 -a 0 -i 4 -k AGT
h -t 1.000000000 -s 1 -d -1 -p cbr -e 1000 -c 2 -a 0 -i 4 -k AGT
+ -t 1.000000000 -s 1 -d 2 -p cbr -e 1020 -c 2 -a 0 -i 4 -k RTR 
- -t 1.000000000 -s 1 -d 2 -p cbr -e 1020 -c 2 -a 0 -i 4 -k RTR
h -t 1.000000000 -s 1 -d 2 -p cbr -e 1020 -c 2 -a 0 -i 4 -k RTR
+ -t 1.000000000 -s 3 -d -1 -p cbr -e 1000 -c 2 -a 0 -i 5 -k AGT 
- -t 1.000000000 -s 3 -d -1 -p cbr -e 1000 -c 2 -a 0 -i 5 -k AGT
h -t 1.000000000 -s 3 -d -1 -p cbr -e 1000 -c 2 -a 0 -i 5 -k AGT
+ -t 1.000000000 -s 3 -d 2 -p cbr -e 1020 -c 2 -a 0 -i 5 -k RTR 
- -t 1.000000000 -s 3 -d 2 -p cbr -e 1020 -c 2 -a 0 -i 5 -k RTR
h -t 1.000000000 -s 3 -d 2 -p cbr -e 1020 -c 2 -a 0 -i 5 -k RTR
+ -t 1.000215000 -s 1 -d -1 -p ARP -e 86 -c 2 -a 0 -i 0 -k MAC 
- -t 1.000215000 -s 1 -d -1 -p ARP -e 86 -c 2 -a 0 -i 0 -k MAC
h -t 1.000215000 -s 1 -d -1 -p ARP -e 86 -c 2 -a 0 -i 0 -k MAC
r -t 1.000903345 -s 3 -d -1 -p ARP -e 28 -c 2 -a 0 -i 0 -k MAC
r -t 1.000903460 -s 0 -d -1 -p ARP -e 28 -c 2 -a 0 -i 0 -k MAC
r -t 1.000903492 -s 2 -d -1 -p ARP -e 28 -c 2 -a 0 -i 0 -k MAC
+ -t 1.001033460 -s 0 -d -1 -p ARP -e 86 -c 2 -a 0 -i 0 -k MAC 
- -t 1.001033460 -s 0 -d -1 -p ARP -e 86 -c 2 -a 0 -i 0 -k MAC
h -t 1.001033460 -s 0 -d -1 -p ARP -e 86 -c 2 -a 0 -i 0 -k MAC
r -t 1.001721920 -s 1 -d -1 -p ARP -e 28 -c 2 -a 0 -i 0 -k MAC
r -t 1.001722192 -s 3 -d -1 -p ARP -e 28 -c 2 -a 0 -i 0 -k MAC
r -t 1.001722232 -s 2 -d -1 -p ARP -e 28 -c 2 -a 0 -i 0 -k MAC
+ -t 1.002012192 -s 3 -d -1 -p ARP -e 86 -c 2 -a 0 -i 0 -k MAC 
- -t 1.002012192 -s 3 -d -1 -p ARP -e 86 -c 2 -a 0 -i 0 -k MAC
h -t 1.002012192 -s 3 -d -1 -p ARP -e 86 -c 2 -a 0 -i 0 -k MAC
r -t 1.002700537 -s 1 -d -1 -p ARP -e 28 -c 2 -a 0 -i 0 -k MAC
r -t 1.002700924 -s 0 -d -1 -p ARP -e 28 -c 2 -a 0 -i 0 -k MAC
r -t 1.002700926 -s 2 -d -1 -p ARP -e 28 -c 2 -a 0 -i 0 -k MAC
+ -t 1.002770926 -s 2 -d -1 -p RTS -e 44 -c 2 -a 0 -i 0 -k MAC 
- -t 1.002770926 -s 2 -d -1 -p RTS -e 44 -c 2 -a 0 -i 0 -k MAC
h -t 1.002770926 -s 2 -d -1 -p RTS -e 44 -c 2 -a 0 -i 0 -k MAC
r -t 1.003123419 -s 1 -d -1 -p RTS -e 44 -c 2 -a 0 -i 0 -k MAC
+ -t 1.003133419 -s 1 -d -1 -p CTS -e 38 -c 2 -a 0 -i 0 -k MAC 
- -t 1.003133419 -s 1 -d -1 -p CTS -e 38 -c 2 -a 0 -i 0 -k MAC
h -t 1.003133419 -s 1 -d -1 -p CTS -e 38 -c 2 -a 0 -i 0 -k MAC
r -t 1.003437911 -s 2 -d -1 -p CTS -e 38 -c 2 -a 0 -i 0 -k MAC
+ -t 1.003447911 -s 2 -d -1 -p ARP -e 86 -c 2 -a 0 -i 0 -k MAC 
- -t 1.003447911 -s 2 -d -1 -p ARP -e 86 -c 2 -a 0 -i 0 -k MAC
h -t 1.003447911 -s 2 -d -1 -p ARP -e 86 -c 2 -a 0 -i 0 -k MAC
r -t 1.004136403 -s 1 -d -1 -p ARP -e 28 -c 2 -a 0 -i 0 -k MAC
+ -t 1.004146403 -s 1 -d -1 -p ACK -e 38 -c 2 -a 0 -i 0 -k MAC 
- -t 1.004146403 -s 1 -d -1 -p ACK -e 38 -c 2 -a 0 -i 0 -k MAC
h -t 1.004146403 -s 1 -d -1 -p ACK -e 38 -c 2 -a 0 -i 0 -k MAC
r -t 1.004450896 -s 2 -d -1 -p ACK -e 38 -c 2 -a 0 -i 0 -k MAC
+ -t 1.004520403 -s 1 -d -1 -p RTS -e 44 -c 2 -a 0 -i 0 -k MAC 
- -t 1.004520403 -s 1 -d -1 -p RTS -e 44 -c 2 -a 0 -i 0 -k MAC
h -t 1.004520403 -s 1 -d -1 -p RTS -e 44 -c 2 -a 0 -i 0 -k MAC
r -t 1.004872896 -s 2 -d -1 -p RTS -e 44 -c 2 -a 0 -i 0 -k MAC
+ -t 1.004882896 -s 2 -d -1 -p CTS -e 38 -c 2 -a 0 -i 0 -k MAC 
- -t 1.004882896 -s 2 -d -1 -p CTS -e 38 -c 2 -a 0 -i 0 -k MAC
h -t 1.004882896 -s 2 -d -1 -p CTS -e 38 -c 2 -a 0 -i 0 -k MAC
r -t 1.005187388 -s 1 -d -1 -p CTS -e 38 -c 2 -a 0 -i 0 -k MAC
+ -t 1.005197388 -s 1 -d 2 -p cbr -e 1078 -c 2 -a 0 -i 4 -k MAC 
- -t 1.005197388 -s 1 -d 2 -p cbr -e 1078 -c 2 -a 0 -i 4 -k MAC
h -t 1.005197388 -s 1 -d 2 -p cbr -e 1078 -c 2 -a 0 -i 4 -k MAC
+ -t 1.008000000 -s 0 -d -1 -p cbr -e 1000 -c 2 -a 0 -i 6 -k AGT 
- -t 1.008000000 -s 0 -d -1 -p cbr -e 1000 -c 2 -a 0 -i 6 -k AGT
h -t 1.008000000 -s 0 -d -1 -p cbr -e 1000 -c 2 -a 0 -i 6 -k AGT
+ -t 1.008000000 -s 0 -d 2 -p cbr -e 1020 -c 2 -a 0 -i 6 -k RTR 
- -t 1.008000000 -s 0 -d 2 -p cbr -e 1020 -c 2 -a 0 -i 6 -k RTR
h -t 1.008000000 -s 0 -d 2 -p cbr -e 1020 -c 2 -a 0 -i 6 -k RTR
d -t 1.008000000 -s 0 -d 2 -p cbr -e 1020 -c 2 -a 0 -i 3 -k IFQ
+ -t 1.008000000 -s 1 -d -1 -p cbr -e 1000 -c 2 -a 0 -i 7 -k AGT 
- -t 1.008000000 -s 1 -d -1 -p cbr -e 1000 -c 2 -a 0 -i 7 -k AGT
h -t 1.008000000 -s 1 -d -1 -p cbr -e 1000 -c 2 -a 0 -i 7 -k AGT
+ -t 1.008000000 -s 1 -d 2 -p cbr -e 1020 -c 2 -a 0 -i 7 -k RTR 
- -t 1.008000000 -s 1 -d 2 -p cbr -e 1020 -c 2 -a 0 -i 7 -k RTR
h -t 1.008000000 -s 1 -d 2 -p cbr -e 1020 -c 2 -a 0 -i 7 -k RTR
+ -t 1.008000000 -s 3 -d -1 -p cbr -e 1000 -c 2 -a 0 -i 8 -k AGT 
- -t 1.008000000 -s 3 -d -1 -p cbr -e 1000 -c 2 -a 0 -i 8 -k AGT
h -t 1.008000000 -s 3 -d -1 -p cbr -e 1000 -c 2 -a 0 -i 8 -k AGT
+ -t 1.008000000 -s 3 -d 2 -p cbr -e 1020 -c 2 -a 0 -i 8 -k RTR 
- -t 1.008000000 -s 3 -d 2 -p cbr -e 1020 -c 2 -a 0 -i 8 -k RTR
h -t 1.008000000 -s 3 -d 2 -p cbr -e 1020 -c 2 -a 0 -i 8 -k RTR
d -t 1.008000000 -s 3 -d 2 -p cbr -e 1020 -c 2 -a 0 -i 5 -k IFQ
r -t 1.013821880 -s 2 -d 2 -p cbr -e 1020 -c 2 -a 0 -i 4 -k MAC
+ -t 1.013831880 -s 2 -d -1 -p ACK -e 38 -c 2 -a 0 -i 0 -k MAC 
- -t 1.013831880 -s 2 -d -1 -p ACK -e 38 -c 2 -a 0 -i 0 -k MAC
h -t 1.013831880 -s 2 -d -1 -p ACK -e 38 -c 2 -a 0 -i 0 -k MAC
r -t 1.013846880 -s 2 -d 2 -p cbr -e 1020 -c 2 -a 0 -i 4 -k AGT
r -t 1.014136373 -s 1 -d -1 -p ACK -e 38 -c 2 -a 0 -i 0 -k MAC
+ -t 1.014366373 -s 1 -d -1 -p RTS -e 44 -c 2 -a 0 -i 0 -k MAC 
- -t 1.014366373 -s 1 -d -1 -p RTS -e 44 -c 2 -a 0 -i 0 -k MAC
h -t 1.014366373 -s 1 -d -1 -p RTS -e 44 -c 2 -a 0 -i 0 -k MAC
r -t 1.014718865 -s 2 -d -1 -p RTS -e 44 -c 2 -a 0 -i 0 -k MAC
+ -t 1.014728865 -s 2 -d -1 -p CTS -e 38 -c 2 -a 0 -i 0 -k MAC 
- -t 1.014728865 -s 2 -d -1 -p CTS -e 38 -c 2 -a 0 -i 0 -k MAC
h -t 1.014728865 -s 2 -d -1 -p CTS -e 38 -c 2 -a 0 -i 0 -k MAC
r -t 1.015033358 -s 1 -d -1 -p CTS -e 38 -c 2 -a 0 -i 0 -k MAC
+ -t 1.015043358 -s 1 -d 2 -p cbr -e 1078 -c 2 -a 0 -i 7 -k MAC 
- -t 1.015043358 -s 1 -d 2 -p cbr -e 1078 -c 2 -a 0 -i 7 -k MAC
h -t 1.015043358 -s 1 -d 2 -p cbr -e 1078 -c 2 -a 0 -i 7 -k MAC
+ -t 1.016000000 -s 0 -d -1 -p cbr -e 1000 -c 2 -a 0 -i 9 -k AGT 
- -t 1.016000000 -s 0 -d -1 -p cbr -e 1000 -c 2 -a 0 -i 9 -k AGT
h -t 1.016000000 -s 0 -d -1 -p cbr -e 1000 -c 2 -a 0 -i 9 -k AGT
+ -t 1.016000000 -s 0 -d 2 -p cbr -e 1020 -c 2 -a 0 -i 9 -k RTR 
- -t 1.016000000 -s 0 -d 2 -p cbr -e 1020 -c 2 -a 0 -i 9 -k RTR
h -t 1.016000000 -s 0 -d 2 -p cbr -e 1020 -c 2 -a 0 -i 9 -k RTR
d -t 1.016000000 -s 0 -d 2 -p cbr -e 1020 -c 2 -a 0 -i 6 -k IFQ
+ -t 1.016000000 -s 1 -d -1 -p cbr -e 1000 -c 2 -a 0 -i 10 -k AGT 
- -t 1.016000000 -s 1 -d -1 -p cbr -e 1000 -c 2 -a 0 -i 10 -k AGT
h -t 1.016000000 -s 1 -d -1 -p cbr -e 1000 -c 2 -a 0 -i 10 -k AGT
+ -t 1.016000000 -s 1 -d 2 -p cbr -e 1020 -c 2 -a 0 -i 10 -k RTR 
- -t 1.016000000 -s 1 -d 2 -p cbr -e 1020 -c 2 -a 0 -i 10 -k RTR
h -t 1.016000000 -s 1 -d 2 -p cbr -e 1020 -c 2 -a 0 -i 10 -k RTR
+ -t 1.016000000 -s 3 -d -1 -p cbr -e 1000 -c 2 -a 0 -i 11 -k AGT 
- -t 1.016000000 -s 3 -d -1 -p cbr -e 1000 -c 2 -a 0 -i 11 -k AGT
h -t 1.016000000 -s 3 -d -1 -p cbr -e 1000 -c 2 -a 0 -i 11 -k AGT
+ -t 1.016000000 -s 3 -d 2 -p cbr -e 1020 -c 2 -a 0 -i 11 -k RTR 
- -t 1.016000000 -s 3 -d 2 -p cbr -e 1020 -c 2 -a 0 -i 11 -k RTR
h -t 1.016000000 -s 3 -d 2 -p cbr -e 1020 -c 2 -a 0 -i 11 -k RTR
d -t 1.016000000 -s 3 -d 2 -p cbr -e 1020 -c 2 -a 0 -i 8 -k IFQ
r -t 1.023667850 -s 2 -d 2 -p cbr -e 1020 -c 2 -a 0 -i 7 -k MAC
+ -t 1.023677850 -s 2 -d -1 -p ACK -e 38 -c 2 -a 0 -i 0 -k MAC 
- -t 1.023677850 -s 2 -d -1 -p ACK -e 38 -c 2 -a 0 -i 0 -k MAC
h -t 1.023677850 -s 2 -d -1 -p ACK -e 38 -c 2 -a 0 -i 0 -k MAC
r -t 1.023692850 -s 2 -d 2 -p cbr -e 1020 -c 2 -a 0 -i 7 -k AGT
r -t 1.023982342 -s 1 -d -1 -p ACK -e 38 -c 2 -a 0 -i 0 -k MAC
+ -t 1.024000000 -s 0 -d -1 -p cbr -e 1000 -c 2 -a 0 -i 12 -k AGT 
- -t 1.024000000 -s 0 -d -1 -p cbr -e 1000 -c 2 -a 0 -i 12 -k AGT
h -t 1.024000000 -s 0 -d -1 -p cbr -e 1000 -c 2 -a 0 -i 12 -k AGT
+ -t 1.024000000 -s 0 -d 2 -p cbr -e 1020 -c 2 -a 0 -i 12 -k RTR 
- -t 1.024000000 -s 0 -d 2 -p cbr -e 1020 -c 2 -a 0 -i 12 -k RTR
h -t 1.024000000 -s 0 -d 2 -p cbr -e 1020 -c 2 -a 0 -i 12 -k RTR
d -t 1.024000000 -s 0 -d 2 -p cbr -e 1020 -c 2 -a 0 -i 9 -k RTR
d -t 1.024000000 -s 0 -d 2 -p cbr -e 1020 -c 2 -a 0 -i 12 -k RTR
+ -t 1.024000000 -s 1 -d -1 -p cbr -e 1000 -c 2 -a 0 -i 13 -k AGT 
- -t 1.024000000 -s 1 -d -1 -p cbr -e 1000 -c 2 -a 0 -i 13 -k AGT
h -t 1.024000000 -s 1 -d -1 -p cbr -e 1000 -c 2 -a 0 -i 13 -k AGT
+ -t 1.024000000 -s 1 -d 2 -p cbr -e 1020 -c 2 -a 0 -i 13 -k RTR 
- -t 1.024000000 -s 1 -d 2 -p cbr -e 1020 -c 2 -a 0 -i 13 -k RTR
h -t 1.024000000 -s 1 -d 2 -p cbr -e 1020 -c 2 -a 0 -i 13 -k RTR
+ -t 1.024000000 -s 3 -d -1 -p cbr -e 1000 -c 2 -a 0 -i 14 -k AGT 
- -t 1.024000000 -s 3 -d -1 -p cbr -e 1000 -c 2 -a 0 -i 14 -k AGT
h -t 1.024000000 -s 3 -d -1 -p cbr -e 1000 -c 2 -a 0 -i 14 -k AGT
+ -t 1.024000000 -s 3 -d 2 -p cbr -e 1020 -c 2 -a 0 -i 14 -k RTR 
- -t 1.024000000 -s 3 -d 2 -p cbr -e 1020 -c 2 -a 0 -i 14 -k RTR
h -t 1.024000000 -s 3 -d 2 -p cbr -e 1020 -c 2 -a 0 -i 14 -k RTR
d -t 1.024000000 -s 3 -d 2 -p cbr -e 1020 -c 2 -a 0 -i 11 -k RTR
d -t 1.024000000 -s 3 -d 2 -p cbr -e 1020 -c 2 -a 0 -i 14 -k RTR
+ -t 1.024052584 -s 3 -d -1 -p ARP -e 86 -c 2 -a 0 -i 0 -k MAC 
- -t 1.024052584 -s 3 -d -1 -p ARP -e 86 -c 2 -a 0 -i 0 -k MAC
h -t 1.024052584 -s 3 -d -1 -p ARP -e 86 -c 2 -a 0 -i 0 -k MAC
r -t 1.024740929 -s 1 -d -1 -p ARP -e 28 -c 2 -a 0 -i 0 -k MAC
r -t 1.024741316 -s 0 -d -1 -p ARP -e 28 -c 2 -a 0 -i 0 -k MAC
r -t 1.024741319 -s 2 -d -1 -p ARP -e 28 -c 2 -a 0 -i 0 -k MAC
+ -t 1.024831319 -s 2 -d -1 -p RTS -e 44 -c 2 -a 0 -i 0 -k MAC 
- -t 1.024831319 -s 2 -d -1 -p RTS -e 44 -c 2 -a 0 -i 0 -k MAC
h -t 1.024831319 -s 2 -d -1 -p RTS -e 44 -c 2 -a 0 -i 0 -k MAC
r -t 1.025184090 -s 0 -d -1 -p RTS -e 44 -c 2 -a 0 -i 0 -k MAC
+ -t 1.025194090 -s 0 -d -1 -p CTS -e 38 -c 2 -a 0 -i 0 -k MAC 
- -t 1.025194090 -s 0 -d -1 -p CTS -e 38 -c 2 -a 0 -i 0 -k MAC
h -t 1.025194090 -s 0 -d -1 -p CTS -e 38 -c 2 -a 0 -i 0 -k MAC
r -t 1.025498862 -s 2 -d -1 -p CTS -e 38 -c 2 -a 0 -i 0 -k MAC
+ -t 1.025508862 -s 2 -d -1 -p ARP -e 86 -c 2 -a 0 -i 0 -k MAC 
- -t 1.025508862 -s 2 -d -1 -p ARP -e 86 -c 2 -a 0 -i 0 -k MAC
h -t 1.025508862 -s 2 -d -1 -p ARP -e 86 -c 2 -a 0 -i 0 -k MAC
r -t 1.026197633 -s 0 -d -1 -p ARP -e 28 -c 2 -a 0 -i 0 -k MAC
+ -t 1.026207633 -s 0 -d -1 -p ACK -e 38 -c 2 -a 0 -i 0 -k MAC 
- -t 1.026207633 -s 0 -d -1 -p ACK -e 38 -c 2 -a 0 -i 0 -k MAC
h -t 1.026207633 -s 0 -d -1 -p ACK -e 38 -c 2 -a 0 -i 0 -k MAC
r -t 1.026512405 -s 2 -d -1 -p ACK -e 38 -c 2 -a 0 -i 0 -k MAC
+ -t 1.026761633 -s 0 -d -1 -p ARP -e 86 -c 2 -a 0 -i 0 -k MAC 
- -t 1.026761633 -s 0 -d -1 -p ARP -e 86 -c 2 -a 0 -i 0 -k MAC
h -t 1.026761633 -s 0 -d -1 -p ARP -e 86 -c 2 -a 0 -i 0 -k MAC
r -t 1.027450093 -s 1 -d -1 -p ARP -e 28 -c 2 -a 0 -i 0 -k MAC
r -t 1.027450365 -s 3 -d -1 -p ARP -e 28 -c 2 -a 0 -i 0 -k MAC
r -t 1.027450405 -s 2 -d -1 -p ARP -e 28 -c 2 -a 0 -i 0 -k MAC
+ -t 1.027680365 -s 3 -d -1 -p ARP -e 86 -c 2 -a 0 -i 0 -k MAC 
- -t 1.027680365 -s 3 -d -1 -p ARP -e 86 -c 2 -a 0 -i 0 -k MAC
h -t 1.027680365 -s 3 -d -1 -p ARP -e 86 -c 2 -a 0 -i 0 -k MAC
r -t 1.028368710 -s 1 -d -1 -p ARP -e 28 -c 2 -a 0 -i 0 -k MAC
r -t 1.028369097 -s 0 -d -1 -p ARP -e 28 -c 2 -a 0 -i 0 -k MAC
r -t 1.028369099 -s 2 -d -1 -p ARP -e 28 -c 2 -a 0 -i 0 -k MAC
+ -t 1.028578710 -s 1 -d -1 -p RTS -e 44 -c 2 -a 0 -i 0 -k MAC 
- -t 1.028578710 -s 1 -d -1 -p RTS -e 44 -c 2 -a 0 -i 0 -k MAC
h -t 1.028578710 -s 1 -d -1 -p RTS -e 44 -c 2 -a 0 -i 0 -k MAC
r -t 1.028931202 -s 2 -d -1 -p RTS -e 44 -c 2 -a 0 -i 0 -k MAC
+ -t 1.028941202 -s 2 -d -1 -p CTS -e 38 -c 2 -a 0 -i 0 -k MAC 
- -t 1.028941202 -s 2 -d -1 -p CTS -e 38 -c 2 -a 0 -i 0 -k MAC
h -t 1.028941202 -s 2 -d -1 -p CTS -e 38 -c 2 -a 0 -i 0 -k MAC
r -t 1.029245695 -s 1 -d -1 -p CTS -e 38 -c 2 -a 0 -i 0 -k MAC
+ -t 1.029255695 -s 1 -d 2 -p cbr -e 1078 -c 2 -a 0 -i 10 -k MAC 
- -t 1.029255695 -s 1 -d 2 -p cbr -e 1078 -c 2 -a 0 -i 10 -k MAC
h -t 1.029255695 -s 1 -d 2 -p cbr -e 1078 -c 2 -a 0 -i 10 -k MAC
+ -t 1.032000000 -s 0 -d -1 -p cbr -e 1000 -c 2 -a 0 -i 15 -k AGT 
- -t 1.032000000 -s 0 -d -1 -p cbr -e 1000 -c 2 -a 0 -i 15 -k AGT
h -t 1.032000000 -s 0 -d -1 -p cbr -e 1000 -c 2 -a 0 -i 15 -k AGT
+ -t 1.032000000 -s 0 -d 2 -p cbr -e 1020 -c 2 -a 0 -i 15 -k RTR 
- -t 1.032000000 -s 0 -d 2 -p cbr -e 1020 -c 2 -a 0 -i 15 -k RTR
h -t 1.032000000 -s 0 -d 2 -p cbr -e 1020 -c 2 -a 0 -i 15 -k RTR
+ -t 1.032000000 -s 1 -d -1 -p cbr -e 1000 -c 2 -a 0 -i 16 -k AGT 
- -t 1.032000000 -s 1 -d -1 -p cbr -e 1000 -c 2 -a 0 -i 16 -k AGT
h -t 1.032000000 -s 1 -d -1 -p cbr -e 1000 -c 2 -a 0 -i 16 -k AGT
+ -t 1.032000000 -s 1 -d 2 -p cbr -e 1020 -c 2 -a 0 -i 16 -k RTR 
- -t 1.032000000 -s 1 -d 2 -p cbr -e 1020 -c 2 -a 0 -i 16 -k RTR
h -t 1.032000000 -s 1 -d 2 -p cbr -e 1020 -c 2 -a 0 -i 16 -k RTR
+ -t 1.032000000 -s 3 -d -1 -p cbr -e 1000 -c 2 -a 0 -i 17 -k AGT 
- -t 1.032000000 -s 3 -d -1 -p cbr -e 1000 -c 2 -a 0 -i 17 -k AGT
h -t 1.032000000 -s 3 -d -1 -p cbr -e 1000 -c 2 -a 0 -i 17 -k AGT
+ -t 1.032000000 -s 3 -d 2 -p cbr -e 1020 -c 2 -a 0 -i 17 -k RTR 
- -t 1.032000000 -s 3 -d 2 -p cbr -e 1020 -c 2 -a 0 -i 17 -k RTR
h -t 1.032000000 -s 3 -d 2 -p cbr -e 1020 -c 2 -a 0 -i 17 -k RTR
r -t 1.037880187 -s 2 -d 2 -p cbr -e 1020 -c 2 -a 0 -i 10 -k MAC
+ -t 1.037890187 -s 2 -d -1 -p ACK -e 38 -c 2 -a 0 -i 0 -k MAC 
- -t 1.037890187 -s 2 -d -1 -p ACK -e 38 -c 2 -a 0 -i 0 -k MAC
h -t 1.037890187 -s 2 -d -1 -p ACK -e 38 -c 2 -a 0 -i 0 -k MAC
r -t 1.037905187 -s 2 -d 2 -p cbr -e 1020 -c 2 -a 0 -i 10 -k AGT
r -t 1.038194679 -s 1 -d -1 -p ACK -e 38 -c 2 -a 0 -i 0 -k MAC
+ -t 1.038264187 -s 2 -d -1 -p RTS -e 44 -c 2 -a 0 -i 0 -k MAC 
- -t 1.038264187 -s 2 -d -1 -p RTS -e 44 -c 2 -a 0 -i 0 -k MAC
h -t 1.038264187 -s 2 -d -1 -p RTS -e 44 -c 2 -a 0 -i 0 -k MAC
+ -t 1.038264959 -s 0 -d -1 -p ARP -e 86 -c 2 -a 0 -i 0 -k MAC 
- -t 1.038264959 -s 0 -d -1 -p ARP -e 86 -c 2 -a 0 -i 0 -k MAC
h -t 1.038264959 -s 0 -d -1 -p ARP -e 86 -c 2 -a 0 -i 0 -k MAC
d -t 1.038265691 -s 3 -d -1 -p RTS -e 44 -c 2 -a 0 -i 0 -k MAC
d -t 1.038953419 -s 1 -d -1 -p ARP -e 86 -c 2 -a 0 -i 0 -k MAC
d -t 1.038953691 -s 3 -d -1 -p ARP -e 86 -c 2 -a 0 -i 0 -k MAC
+ -t 1.039082959 -s 0 -d -1 -p RTS -e 44 -c 2 -a 0 -i 0 -k MAC 
- -t 1.039082959 -s 0 -d -1 -p RTS -e 44 -c 2 -a 0 -i 0 -k MAC
h -t 1.039082959 -s 0 -d -1 -p RTS -e 44 -c 2 -a 0 -i 0 -k MAC
r -t 1.039435730 -s 2 -d -1 -p RTS -e 44 -c 2 -a 0 -i 0 -k MAC
+ -t 1.039445730 -s 2 -d -1 -p CTS -e 38 -c 2 -a 0 -i 0 -k MAC 
- -t 1.039445730 -s 2 -d -1 -p CTS -e 38 -c 2 -a 0 -i 0 -k MAC
h -t 1.039445730 -s 2 -d -1 -p CTS -e 38 -c 2 -a 0 -i 0 -k MAC
r -t 1.039750502 -s 0 -d -1 -p CTS -e 38 -c 2 -a 0 -i 0 -k MAC
+ -t 1.039760502 -s 0 -d 2 -p cbr -e 1078 -c 2 -a 0 -i 15 -k MAC 
- -t 1.039760502 -s 0 -d 2 -p cbr -e 1078 -c 2 -a 0 -i 15 -k MAC
h -t 1.039760502 -s 0 -d 2 -p cbr -e 1078 -c 2 -a 0 -i 15 -k MAC
+ -t 1.040000000 -s 0 -d -1 -p cbr -e 1000 -c 2 -a 0 -i 18 -k AGT 
- -t 1.040000000 -s 0 -d -1 -p cbr -e 1000 -c 2 -a 0 -i 18 -k AGT
h -t 1.040000000 -s 0 -d -1 -p cbr -e 1000 -c 2 -a 0 -i 18 -k AGT
+ -t 1.040000000 -s 0 -d 2 -p cbr -e 1020 -c 2 -a 0 -i 18 -k RTR 
- -t 1.040000000 -s 0 -d 2 -p cbr -e 1020 -c 2 -a 0 -i 18 -k RTR
h -t 1.040000000 -s 0 -d 2 -p cbr -e 1020 -c 2 -a 0 -i 18 -k RTR
+ -t 1.040000000 -s 1 -d -1 -p cbr -e 1000 -c 2 -a 0 -i 19 -k AGT 
- -t 1.040000000 -s 1 -d -1 -p cbr -e 1000 -c 2 -a 0 -i 19 -k AGT
h -t 1.040000000 -s 1 -d -1 -p cbr -e 1000 -c 2 -a 0 -i 19 -k AGT
+ -t 1.040000000 -s 1 -d 2 -p cbr -e 1020 -c 2 -a 0 -i 19 -k RTR 
- -t 1.040000000 -s 1 -d 2 -p cbr -e 1020 -c 2 -a 0 -i 19 -k RTR
h -t 1.040000000 -s 1 -d 2 -p cbr -e 1020 -c 2 -a 0 -i 19 -k RTR
+ -t 1.040000000 -s 3 -d -1 -p cbr -e 1000 -c 2 -a 0 -i 20 -k AGT 
- -t 1.040000000 -s 3 -d -1 -p cbr -e 1000 -c 2 -a 0 -i 20 -k AGT
h -t 1.040000000 -s 3 -d -1 -p cbr -e 1000 -c 2 -a 0 -i 20 -k AGT
+ -t 1.040000000 -s 3 -d 2 -p cbr -e 1020 -c 2 -a 0 -i 20 -k RTR 
- -t 1.040000000 -s 3 -d 2 -p cbr -e 1020 -c 2 -a 0 -i 20 -k RTR
h -t 1.040000000 -s 3 -d 2 -p cbr -e 1020 -c 2 -a 0 -i 20 -k RTR
d -t 1.040000000 -s 3 -d 2 -p cbr -e 1020 -c 2 -a 0 -i 17 -k IFQ
+ -t 1.048000000 -s 0 -d -1 -p cbr -e 1000 -c 2 -a 0 -i 21 -k AGT 
- -t 1.048000000 -s 0 -d -1 -p cbr -e 1000 -c 2 -a 0 -i 21 -k AGT
h -t 1.048000000 -s 0 -d -1 -p cbr -e 1000 -c 2 -a 0 -i 21 -k AGT
+ -t 1.048000000 -s 0 -d 2 -p cbr -e 1020 -c 2 -a 0 -i 21 -k RTR 
- -t 1.048000000 -s 0 -d 2 -p cbr -e 1020 -c 2 -a 0 -i 21 -k RTR
h -t 1.048000000 -s 0 -d 2 -p cbr -e 1020 -c 2 -a 0 -i 21 -k RTR
+ -t 1.048000000 -s 1 -d -1 -p cbr -e 1000 -c 2 -a 0 -i 22 -k AGT 
- -t 1.048000000 -s 1 -d -1 -p cbr -e 1000 -c 2 -a 0 -i 22 -k AGT
h -t 1.048000000 -s 1 -d -1 -p cbr -e 1000 -c 2 -a 0 -i 22 -k AGT
+ -t 1.048000000 -s 1 -d 2 -p cbr -e 1020 -c 2 -a 0 -i 22 -k RTR 
- -t 1.048000000 -s 1 -d 2 -p cbr -e 1020 -c 2 -a 0 -i 22 -k RTR
h -t 1.048000000 -s 1 -d 2 -p cbr -e 1020 -c 2 -a 0 -i 22 -k RTR
+ -t 1.048000000 -s 3 -d -1 -p cbr -e 1000 -c 2 -a 0 -i 23 -k AGT 
- -t 1.048000000 -s 3 -d -1 -p cbr -e 1000 -c 2 -a 0 -i 23 -k AGT
h -t 1.048000000 -s 3 -d -1 -p cbr -e 1000 -c 2 -a 0 -i 23 -k AGT
+ -t 1.048000000 -s 3 -d 2 -p cbr -e 1020 -c 2 -a 0 -i 23 -k RTR 
- -t 1.048000000 -s 3 -d 2 -p cbr -e 1020 -c 2 -a 0 -i 23 -k RTR
h -t 1.048000000 -s 3 -d 2 -p cbr -e 1020 -c 2 -a 0 -i 23 -k RTR
d -t 1.048000000 -s 3 -d 2 -p cbr -e 1020 -c 2 -a 0 -i 20 -k IFQ
r -t 1.048385273 -s 2 -d 2 -p cbr -e 1020 -c 2 -a 0 -i 15 -k MAC
+ -t 1.048395273 -s 2 -d -1 -p ACK -e 38 -c 2 -a 0 -i 0 -k MAC 
- -t 1.048395273 -s 2 -d -1 -p ACK -e 38 -c 2 -a 0 -i 0 -k MAC
h -t 1.048395273 -s 2 -d -1 -p ACK -e 38 -c 2 -a 0 -i 0 -k MAC
r -t 1.048410273 -s 2 -d 2 -p cbr -e 1020 -c 2 -a 0 -i 15 -k AGT
r -t 1.048700045 -s 0 -d -1 -p ACK -e 38 -c 2 -a 0 -i 0 -k MAC
+ -t 1.049030045 -s 0 -d -1 -p RTS -e 44 -c 2 -a 0 -i 0 -k MAC 
- -t 1.049030045 -s 0 -d -1 -p RTS -e 44 -c 2 -a 0 -i 0 -k MAC
h -t 1.049030045 -s 0 -d -1 -p RTS -e 44 -c 2 -a 0 -i 0 -k MAC
r -t 1.049382816 -s 2 -d -1 -p RTS -e 44 -c 2 -a 0 -i 0 -k MAC
+ -t 1.049392816 -s 2 -d -1 -p CTS -e 38 -c 2 -a 0 -i 0 -k MAC 
- -t 1.049392816 -s 2 -d -1 -p CTS -e 38 -c 2 -a 0 -i 0 -k MAC
h -t 1.049392816 -s 2 -d -1 -p CTS -e 38 -c 2 -a 0 -i 0 -k MAC
r -t 1.049697588 -s 0 -d -1 -p CTS -e 38 -c 2 -a 0 -i 0 -k MAC
+ -t 1.049707588 -s 0 -d 2 -p cbr -e 1078 -c 2 -a 0 -i 18 -k MAC 
- -t 1.049707588 -s 0 -d 2 -p cbr -e 1078 -c 2 -a 0 -i 18 -k MAC
h -t 1.049707588 -s 0 -d 2 -p cbr -e 1078 -c 2 -a 0 -i 18 -k MAC
+ -t 1.056000000 -s 0 -d -1 -p cbr -e 1000 -c 2 -a 0 -i 24 -k AGT 
- -t 1.056000000 -s 0 -d -1 -p cbr -e 1000 -c 2 -a 0 -i 24 -k AGT
h -t 1.056000000 -s 0 -d -1 -p cbr -e 1000 -c 2 -a 0 -i 24 -k AGT
+ -t 1.056000000 -s 0 -d 2 -p cbr -e 1020 -c 2 -a 0 -i 24 -k RTR 
- -t 1.056000000 -s 0 -d 2 -p cbr -e 1020 -c 2 -a 0 -i 24 -k RTR
h -t 1.056000000 -s 0 -d 2 -p cbr -e 1020 -c 2 -a 0 -i 24 -k RTR
+ -t 1.056000000 -s 1 -d -1 -p cbr -e 1000 -c 2 -a 0 -i 25 -k AGT 
- -t 1.056000000 -s 1 -d -1 -p cbr -e 1000 -c 2 -a 0 -i 25 -k AGT
h -t 1.056000000 -s 1 -d -1 -p cbr -e 1000 -c 2 -a 0 -i 25 -k AGT
+ -t 1.056000000 -s 1 -d 2 -p cbr -e 1020 -c 2 -a 0 -i 25 -k RTR 
- -t 1.056000000 -s 1 -d 2 -p cbr -e 1020 -c 2 -a 0 -i 25 -k RTR
h -t 1.056000000 -s 1 -d 2 -p cbr -e 1020 -c 2 -a 0 -i 25 -k RTR
+ -t 1.056000000 -s 3 -d -1 -p cbr -e 1000 -c 2 -a 0 -i 26 -k AGT 
- -t 1.056000000 -s 3 -d -1 -p cbr -e 1000 -c 2 -a 0 -i 26 -k AGT
h -t 1.056000000 -s 3 -d -1 -p cbr -e 1000 -c 2 -a 0 -i 26 -k AGT
+ -t 1.056000000 -s 3 -d 2 -p cbr -e 1020 -c 2 -a 0 -i 26 -k RTR 
- -t 1.056000000 -s 3 -d 2 -p cbr -e 1020 -c 2 -a 0 -i 26 -k RTR
h -t 1.056000000 -s 3 -d 2 -p cbr -e 1020 -c 2 -a 0 -i 26 -k RTR
d -t 1.056000000 -s 3 -d 2 -p cbr -e 1020 -c 2 -a 0 -i 23 -k RTR
d -t 1.056000000 -s 3 -d 2 -p cbr -e 1020 -c 2 -a 0 -i 26 -k RTR
r -t 1.058332359 -s 2 -d 2 -p cbr -e 1020 -c 2 -a 0 -i 18 -k MAC
+ -t 1.058342359 -s 2 -d -1 -p ACK -e 38 -c 2 -a 0 -i 0 -k MAC 
- -t 1.058342359 -s 2 -d -1 -p ACK -e 38 -c 2 -a 0 -i 0 -k MAC
h -t 1.058342359 -s 2 -d -1 -p ACK -e 38 -c 2 -a 0 -i 0 -k MAC
r -t 1.058357359 -s 2 -d 2 -p cbr -e 1020 -c 2 -a 0 -i 18 -k AGT
r -t 1.058647131 -s 0 -d -1 -p ACK -e 38 -c 2 -a 0 -i 0 -k MAC
+ -t 1.058716359 -s 2 -d -1 -p RTS -e 44 -c 2 -a 0 -i 0 -k MAC 
- -t 1.058716359 -s 2 -d -1 -p RTS -e 44 -c 2 -a 0 -i 0 -k MAC
h -t 1.058716359 -s 2 -d -1 -p RTS -e 44 -c 2 -a 0 -i 0 -k MAC
+ -t 1.058717094 -s 3 -d -1 -p ARP -e 86 -c 2 -a 0 -i 0 -k MAC 
- -t 1.058717094 -s 3 -d -1 -p ARP -e 86 -c 2 -a 0 -i 0 -k MAC
h -t 1.058717094 -s 3 -d -1 -p ARP -e 86 -c 2 -a 0 -i 0 -k MAC
d -t 1.059405439 -s 1 -d -1 -p ARP -e 86 -c 2 -a 0 -i 0 -k MAC
d -t 1.059405826 -s 0 -d -1 -p ARP -e 86 -c 2 -a 0 -i 0 -k MAC
+ -t 1.059899439 -s 1 -d -1 -p RTS -e 44 -c 2 -a 0 -i 0 -k MAC 
- -t 1.059899439 -s 1 -d -1 -p RTS -e 44 -c 2 -a 0 -i 0 -k MAC
h -t 1.059899439 -s 1 -d -1 -p RTS -e 44 -c 2 -a 0 -i 0 -k MAC
r -t 1.060251931 -s 2 -d -1 -p RTS -e 44 -c 2 -a 0 -i 0 -k MAC
+ -t 1.060261931 -s 2 -d -1 -p CTS -e 38 -c 2 -a 0 -i 0 -k MAC 
- -t 1.060261931 -s 2 -d -1 -p CTS -e 38 -c 2 -a 0 -i 0 -k MAC
h -t 1.060261931 -s 2 -d -1 -p CTS -e 38 -c 2 -a 0 -i 0 -k MAC
r -t 1.060566423 -s 1 -d -1 -p CTS -e 38 -c 2 -a 0 -i 0 -k MAC
+ -t 1.060576423 -s 1 -d 2 -p cbr -e 1078 -c 2 -a 0 -i 13 -k MAC 
- -t 1.060576423 -s 1 -d 2 -p cbr -e 1078 -c 2 -a 0 -i 13 -k MAC
h -t 1.060576423 -s 1 -d 2 -p cbr -e 1078 -c 2 -a 0 -i 13 -k MAC
+ -t 1.064000000 -s 0 -d -1 -p cbr -e 1000 -c 2 -a 0 -i 27 -k AGT 
- -t 1.064000000 -s 0 -d -1 -p cbr -e 1000 -c 2 -a 0 -i 27 -k AGT
h -t 1.064000000 -s 0 -d -1 -p cbr -e 1000 -c 2 -a 0 -i 27 -k AGT
+ -t 1.064000000 -s 0 -d 2 -p cbr -e 1020 -c 2 -a 0 -i 27 -k RTR 
- -t 1.064000000 -s 0 -d 2 -p cbr -e 1020 -c 2 -a 0 -i 27 -k RTR
h -t 1.064000000 -s 0 -d 2 -p cbr -e 1020 -c 2 -a 0 -i 27 -k RTR
+ -t 1.064000000 -s 1 -d -1 -p cbr -e 1000 -c 2 -a 0 -i 28 -k AGT 
- -t 1.064000000 -s 1 -d -1 -p cbr -e 1000 -c 2 -a 0 -i 28 -k AGT
h -t 1.064000000 -s 1 -d -1 -p cbr -e 1000 -c 2 -a 0 -i 28 -k AGT
+ -t 1.064000000 -s 1 -d 2 -p cbr -e 1020 -c 2 -a 0 -i 28 -k RTR 
- -t 1.064000000 -s 1 -d 2 -p cbr -e 1020 -c 2 -a 0 -i 28 -k RTR
h -t 1.064000000 -s 1 -d 2 -p cbr -e 1020 -c 2 -a 0 -i 28 -k RTR
+ -t 1.064000000 -s 3 -d -1 -p cbr -e 1000 -c 2 -a 0 -i 29 -k AGT 
- -t 1.064000000 -s 3 -d -1 -p cbr -e 1000 -c 2 -a 0 -i 29 -k AGT
h -t 1.064000000 -s 3 -d -1 -p cbr -e 1000 -c 2 -a 0 -i 29 -k AGT
+ -t 1.064000000 -s 3 -d 2 -p cbr -e 1020 -c 2 -a 0 -i 29 -k RTR 
- -t 1.064000000 -s 3 -d 2 -p cbr -e 1020 -c 2 -a 0 -i 29 -k RTR
h -t 1.064000000 -s 3 -d 2 -p cbr -e 1020 -c 2 -a 0 -i 29 -k RTR
r -t 1.069200916 -s 2 -d 2 -p cbr -e 1020 -c 2 -a 0 -i 13 -k MAC
+ -t 1.069210916 -s 2 -d -1 -p ACK -e 38 -c 2 -a 0 -i 0 -k MAC 
- -t 1.069210916 -s 2 -d -1 -p ACK -e 38 -c 2 -a 0 -i 0 -k MAC
h -t 1.069210916 -s 2 -d -1 -p ACK -e 38 -c 2 -a 0 -i 0 -k MAC
r -t 1.069225916 -s 2 -d 2 -p cbr -e 1020 -c 2 -a 0 -i 13 -k AGT
r -t 1.069515408 -s 1 -d -1 -p ACK -e 38 -c 2 -a 0 -i 0 -k MAC
+ -t 1.069645650 -s 3 -d -1 -p ARP -e 86 -c 2 -a 0 -i 0 -k MAC 
- -t 1.069645650 -s 3 -d -1 -p ARP -e 86 -c 2 -a 0 -i 0 -k MAC
h -t 1.069645650 -s 3 -d -1 -p ARP -e 86 -c 2 -a 0 -i 0 -k MAC
r -t 1.070333995 -s 1 -d -1 -p ARP -e 28 -c 2 -a 0 -i 0 -k MAC
r -t 1.070334382 -s 0 -d -1 -p ARP -e 28 -c 2 -a 0 -i 0 -k MAC
r -t 1.070334384 -s 2 -d -1 -p ARP -e 28 -c 2 -a 0 -i 0 -k MAC
+ -t 1.070424382 -s 0 -d -1 -p RTS -e 44 -c 2 -a 0 -i 0 -k MAC 
- -t 1.070424382 -s 0 -d -1 -p RTS -e 44 -c 2 -a 0 -i 0 -k MAC
h -t 1.070424382 -s 0 -d -1 -p RTS -e 44 -c 2 -a 0 -i 0 -k MAC
r -t 1.070777153 -s 2 -d -1 -p RTS -e 44 -c 2 -a 0 -i 0 -k MAC
+ -t 1.070787153 -s 2 -d -1 -p CTS -e 38 -c 2 -a 0 -i 0 -k MAC 
- -t 1.070787153 -s 2 -d -1 -p CTS -e 38 -c 2 -a 0 -i 0 -k MAC
h -t 1.070787153 -s 2 -d -1 -p CTS -e 38 -c 2 -a 0 -i 0 -k MAC
r -t 1.071091925 -s 0 -d -1 -p CTS -e 38 -c 2 -a 0 -i 0 -k MAC
+ -t 1.071101925 -s 0 -d 2 -p cbr -e 1078 -c 2 -a 0 -i 21 -k MAC 
- -t 1.071101925 -s 0 -d 2 -p cbr -e 1078 -c 2 -a 0 -i 21 -k MAC
h -t 1.071101925 -s 0 -d 2 -p cbr -e 1078 -c 2 -a 0 -i 21 -k MAC
+ -t 1.072000000 -s 0 -d -1 -p cbr -e 1000 -c 2 -a 0 -i 30 -k AGT 
- -t 1.072000000 -s 0 -d -1 -p cbr -e 1000 -c 2 -a 0 -i 30 -k AGT
h -t 1.072000000 -s 0 -d -1 -p cbr -e 1000 -c 2 -a 0 -i 30 -k AGT
+ -t 1.072000000 -s 0 -d 2 -p cbr -e 1020 -c 2 -a 0 -i 30 -k RTR 
- -t 1.072000000 -s 0 -d 2 -p cbr -e 1020 -c 2 -a 0 -i 30 -k RTR
h -t 1.072000000 -s 0 -d 2 -p cbr -e 1020 -c 2 -a 0 -i 30 -k RTR
+ -t 1.072000000 -s 1 -d -1 -p cbr -e 1000 -c 2 -a 0 -i 31 -k AGT 
- -t 1.072000000 -s 1 -d -1 -p cbr -e 1000 -c 2 -a 0 -i 31 -k AGT
h -t 1.072000000 -s 1 -d -1 -p cbr -e 1000 -c 2 -a 0 -i 31 -k AGT
+ -t 1.072000000 -s 1 -d 2 -p cbr -e 1020 -c 2 -a 0 -i 31 -k RTR 
- -t 1.072000000 -s 1 -d 2 -p cbr -e 1020 -c 2 -a 0 -i 31 -k RTR
h -t 1.072000000 -s 1 -d 2 -p cbr -e 1020 -c 2 -a 0 -i 31 -k RTR
+ -t 1.072000000 -s 3 -d -1 -p cbr -e 1000 -c 2 -a 0 -i 32 -k AGT 
- -t 1.072000000 -s 3 -d -1 -p cbr -e 1000 -c 2 -a 0 -i 32 -k AGT
h -t 1.072000000 -s 3 -d -1 -p cbr -e 1000 -c 2 -a 0 -i 32 -k AGT
+ -t 1.072000000 -s 3 -d 2 -p cbr -e 1020 -c 2 -a 0 -i 32 -k RTR 
- -t 1.072000000 -s 3 -d 2 -p cbr -e 1020 -c 2 -a 0 -i 32 -k RTR
h -t 1.072000000 -s 3 -d 2 -p cbr -e 1020 -c 2 -a 0 -i 32 -k RTR
d -t 1.072000000 -s 3 -d 2 -p cbr -e 1020 -c 2 -a 0 -i 29 -k IFQ
r -t 1.079726697 -s 2 -d 2 -p cbr -e 1020 -c 2 -a 0 -i 21 -k MAC
+ -t 1.079736697 -s 2 -d -1 -p ACK -e 38 -c 2 -a 0 -i 0 -k MAC 
- -t 1.079736697 -s 2 -d -1 -p ACK -e 38 -c 2 -a 0 -i 0 -k MAC
h -t 1.079736697 -s 2 -d -1 -p ACK -e 38 -c 2 -a 0 -i 0 -k MAC
r -t 1.079751697 -s 2 -d 2 -p cbr -e 1020 -c 2 -a 0 -i 21 -k AGT
+ -t 1.080000000 -s 0 -d -1 -p cbr -e 1000 -c 2 -a 0 -i 33 -k AGT 
- -t 1.080000000 -s 0 -d -1 -p cbr -e 1000 -c 2 -a 0 -i 33 -k AGT
h -t 1.080000000 -s 0 -d -1 -p cbr -e 1000 -c 2 -a 0 -i 33 -k AGT
+ -t 1.080000000 -s 0 -d 2 -p cbr -e 1020 -c 2 -a 0 -i 33 -k RTR 
- -t 1.080000000 -s 0 -d 2 -p cbr -e 1020 -c 2 -a 0 -i 33 -k RTR
h -t 1.080000000 -s 0 -d 2 -p cbr -e 1020 -c 2 -a 0 -i 33 -k RTR
+ -t 1.080000000 -s 1 -d -1 -p cbr -e 1000 -c 2 -a 0 -i 34 -k AGT 
- -t 1.080000000 -s 1 -d -1 -p cbr -e 1000 -c 2 -a 0 -i 34 -k AGT
h -t 1.080000000 -s 1 -d -1 -p cbr -e 1000 -c 2 -a 0 -i 34 -k AGT
+ -t 1.080000000 -s 1 -d 2 -p cbr -e 1020 -c 2 -a 0 -i 34 -k RTR 
- -t 1.080000000 -s 1 -d 2 -p cbr -e 1020 -c 2 -a 0 -i 34 -k RTR
h -t 1.080000000 -s 1 -d 2 -p cbr -e 1020 -c 2 -a 0 -i 34 -k RTR
+ -t 1.080000000 -s 3 -d -1 -p cbr -e 1000 -c 2 -a 0 -i 35 -k AGT 
- -t 1.080000000 -s 3 -d -1 -p cbr -e 1000 -c 2 -a 0 -i 35 -k AGT
h -t 1.080000000 -s 3 -d -1 -p cbr -e 1000 -c 2 -a 0 -i 35 -k AGT
+ -t 1.080000000 -s 3 -d 2 -p cbr -e 1020 -c 2 -a 0 -i 35 -k RTR 
- -t 1.080000000 -s 3 -d 2 -p cbr -e 1020 -c 2 -a 0 -i 35 -k RTR
h -t 1.080000000 -s 3 -d 2 -p cbr -e 1020 -c 2 -a 0 -i 35 -k RTR
d -t 1.080000000 -s 3 -d 2 -p cbr -e 1020 -c 2 -a 0 -i 32 -k IFQ
r -t 1.080041468 -s 0 -d -1 -p ACK -e 38 -c 2 -a 0 -i 0 -k MAC