s 0.005090888 _0_ RTR  --- 0 message 32 [0 0 0 0] ------- [0:255 -1:255 32 0] 
s 0.005325888 _0_ MAC  --- 0 message 90 [0 ffffffff 0 800] ------- [0:255 -1:255 32 0] 
r 0.006046348 _1_ MAC  --- 0 message 32 [0 ffffffff 0 800] ------- [0:255 -1:255 32 0] 
r 0.006046620 _3_ MAC  --- 0 message 32 [0 ffffffff 0 800] ------- [0:255 -1:255 32 0] 
r 0.006046660 _2_ MAC  --- 0 message 32 [0 ffffffff 0 800] ------- [0:255 -1:255 32 0] 
r 0.006071348 _1_ RTR  --- 0 message 32 [0 ffffffff 0 800] ------- [0:255 -1:255 32 0] 
r 0.006071620 _3_ RTR  --- 0 message 32 [0 ffffffff 0 800] ------- [0:255 -1:255 32 0] 
r 0.006071660 _2_ RTR  --- 0 message 32 [0 ffffffff 0 800] ------- [0:255 -1:255 32 0] 
s 0.030755339 _2_ RTR  --- 1 message 32 [0 0 0 0] ------- [2:255 -1:255 32 0] 
s 0.031090339 _2_ MAC  --- 1 message 90 [0 ffffffff 2 800] ------- [2:255 -1:255 32 0] 
r 0.031810831 _1_ MAC  --- 1 message 32 [0 ffffffff 2 800] ------- [2:255 -1:255 32 0] 
r 0.031811073 _3_ MAC  --- 1 message 32 [0 ffffffff 2 800] ------- [2:255 -1:255 32 0] 
r 0.031811110 _0_ MAC  --- 1 message 32 [0 ffffffff 2 800] ------- [2:255 -1:255 32 0] 
r 0.031835831 _1_ RTR  --- 1 message 32 [0 ffffffff 2 800] ------- [2:255 -1:255 32 0] 
r 0.031836073 _3_ RTR  --- 1 message 32 [0 ffffffff 2 800] ------- [2:255 -1:255 32 0] 
r 0.031836110 _0_ RTR  --- 1 message 32 [0 ffffffff 2 800] ------- [2:255 -1:255 32 0] 
s 0.177886797 _3_ RTR  --- 2 message 32 [0 0 0 0] ------- [3:255 -1:255 32 0] 
s 0.178121797 _3_ MAC  --- 2 message 90 [0 ffffffff 3 800] ------- [3:255 -1:255 32 0] 
r 0.178842142 _1_ MAC  --- 2 message 32 [0 ffffffff 3 800] ------- [3:255 -1:255 32 0] 
r 0.178842529 _0_ MAC  --- 2 message 32 [0 ffffffff 3 800] ------- [3:255 -1:255 32 0] 
r 0.178842531 _2_ MAC  --- 2 message 32 [0 ffffffff 3 800] ------- [3:255 -1:255 32 0] 
r 0.178867142 _1_ RTR  --- 2 message 32 [0 ffffffff 3 800] ------- [3:255 -1:255 32 0] 
r 0.178867529 _0_ RTR  --- 2 message 32 [0 ffffffff 3 800] ------- [3:255 -1:255 32 0] 
r 0.178867531 _2_ RTR  --- 2 message 32 [0 ffffffff 3 800] ------- [3:255 -1:255 32 0] 
s 1.000000000 _0_ AGT  --- 3 cbr 1000 [0 0 0 0] ------- [0:0 2:0 32 0] [0] 0 0
r 1.000000000 _0_ RTR  --- 3 cbr 1000 [0 0 0 0] ------- [0:0 2:0 32 0] [0] 0 0
s 1.000000000 _0_ RTR  --- 3 cbr 1020 [0 0 0 0] ------- [0:0 2:0 32 2] [0] 0 0
s 1.000000000 _1_ AGT  --- 4 cbr 1000 [0 0 0 0] ------- [1:0 2:2 32 0] [0] 0 0
r 1.000000000 _1_ RTR  --- 4 cbr 1000 [0 0 0 0] ------- [1:0 2:2 32 0] [0] 0 0
s 1.000000000 _1_ RTR  --- 4 cbr 1020 [0 0 0 0] ------- [1:0 2:2 32 2] [0] 0 0
s 1.000000000 _3_ AGT  --- 5 cbr 1000 [0 0 0 0] ------- [3:0 2:1 32 0] [0] 0 0
r 1.000000000 _3_ RTR  --- 5 cbr 1000 [0 0 0 0] ------- [3:0 2:1 32 0] [0] 0 0
s 1.000000000 _3_ RTR  --- 5 cbr 1020 [0 0 0 0] ------- [3:0 2:1 32 2] [0] 0 0
s 1.000215000 _1_ MAC  --- 0 ARP 86 [0 ffffffff 1 806] ------- [REQUEST 1/1 0/2]
r 1.000903345 _3_ MAC  --- 0 ARP 28 [0 ffffffff 1 806] ------- [REQUEST 1/1 0/2]
r 1.000903460 _0_ MAC  --- 0 ARP 28 [0 ffffffff 1 806] ------- [REQUEST 1/1 0/2]
r 1.000903492 _2_ MAC  --- 0 ARP 28 [0 ffffffff 1 806] ------- [REQUEST 1/1 0/2]
s 1.001033460 _0_ MAC  --- 0 ARP 86 [0 ffffffff 0 806] ------- [REQUEST 0/0 0/2]
r 1.001721920 _1_ MAC  --- 0 ARP 28 [0 ffffffff 0 806] ------- [REQUEST 0/0 0/2]
r 1.001722192 _3_ MAC  --- 0 ARP 28 [0 ffffffff 0 806] ------- [REQUEST 0/0 0/2]
r 1.001722232 _2_ MAC  --- 0 ARP 28 [0 ffffffff 0 806] ------- [REQUEST 0/0 0/2]
s 1.002012192 _3_ MAC  --- 0 ARP 86 [0 ffffffff 3 806] ------- [REQUEST 3/3 0/2]
r 1.002700537 _1_ MAC  --- 0 ARP 28 [0 ffffffff 3 806] ------- [REQUEST 3/3 0/2]
r 1.002700924 _0_ MAC  --- 0 ARP 28 [0 ffffffff 3 806] ------- [REQUEST 3/3 0/2]
r 1.002700926 _2_ MAC  --- 0 ARP 28 [0 ffffffff 3 806] ------- [REQUEST 3/3 0/2]
s 1.002770926 _2_ MAC  --- 0 RTS 44 [52e 1 2 0] 
r 1.003123419 _1_ MAC  --- 0 RTS 44 [52e 1 2 0] 
s 1.003133419 _1_ MAC  --- 0 CTS 38 [3f4 2 0 0] 
r 1.003437911 _2_ MAC  --- 0 CTS 38 [3f4 2 0 0] 
s 1.003447911 _2_ MAC  --- 0 ARP 86 [13a 1 2 806] ------- [REPLY 2/2 1/1]
r 1.004136403 _1_ MAC  --- 0 ARP 28 [13a 1 2 806] ------- [REPLY 2/2 1/1]
s 1.004146403 _1_ MAC  --- 0 ACK 38 [0 2 0 0] 
r 1.004450896 _2_ MAC  --- 0 ACK 38 [0 2 0 0] 
s 1.004520403 _1_ MAC  --- 0 RTS 44 [242e 2 1 0] 
r 1.004872896 _2_ MAC  --- 0 RTS 44 [242e 2 1 0] 
s 1.004882896 _2_ MAC  --- 0 CTS 38 [22f4 1 0 0] 
r 1.005187388 _1_ MAC  --- 0 CTS 38 [22f4 1 0 0] 
s 1.005197388 _1_ MAC  --- 4 cbr 1078 [13a 2 1 800] ------- [1:0 2:2 32 2] [0] 0 0
s 1.008000000 _0_ AGT  --- 6 cbr 1000 [0 0 0 0] ------- [0:0 2:0 32 0] [1] 0 0
r 1.008000000 _0_ RTR  --- 6 cbr 1000 [0 0 0 0] ------- [0:0 2:0 32 0] [1] 0 0
s 1.008000000 _0_ RTR  --- 6 cbr 1020 [0 0 0 0] ------- [0:0 2:0 32 2] [1] 0 0
D 1.008000000 _0_ IFQ  ARP 3 cbr 1020 [0 0 0 800] ------- [0:0 2:0 32 2] [0] 0 0
s 1.008000000 _1_ AGT  --- 7 cbr 1000 [0 0 0 0] ------- [1:0 2:2 32 0] [1] 0 0
r 1.008000000 _1_ RTR  --- 7 cbr 1000 [0 0 0 0] ------- [1:0 2:2 32 0] [1] 0 0
s 1.008000000 _1_ RTR  --- 7 cbr 1020 [0 0 0 0] ------- [1:0 2:2 32 2] [1] 0 0
s 1.008000000 _3_ AGT  --- 8 cbr 1000 [0 0 0 0] ------- [3:0 2:1 32 0] [1] 0 0
r 1.008000000 _3_ RTR  --- 8 cbr 1000 [0 0 0 0] ------- [3:0 2:1 32 0] [1] 0 0
s 1.008000000 _3_ RTR  --- 8 cbr 1020 [0 0 0 0] ------- [3:0 2:1 32 2] [1] 0 0
D 1.008000000 _3_ IFQ  ARP 5 cbr 1020 [0 0 3 800] ------- [3:0 2:1 32 2] [0] 0 0
r 1.013821880 _2_ MAC  --- 4 cbr 1020 [13a 2 1 800] ------- [1:0 2:2 32 2] [0] 1 0
s 1.013831880 _2_ MAC  --- 0 ACK 38 [0 1 0 0] 
r 1.013846880 _2_ AGT  --- 4 cbr 1020 [13a 2 1 800] ------- [1:0 2:2 32 2] [0] 1 0
r 1.014136373 _1_ MAC  --- 0 ACK 38 [0 1 0 0] 
s 1.014366373 _1_ MAC  --- 0 RTS 44 [242e 2 1 0] 
r 1.014718865 _2_ MAC  --- 0 RTS 44 [242e 2 1 0] 
s 1.014728865 _2_ MAC  --- 0 CTS 38 [22f4 1 0 0] 
r 1.015033358 _1_ MAC  --- 0 CTS 38 [22f4 1 0 0] 
s 1.015043358 _1_ MAC  --- 7 cbr 1078 [13a 2 1 800] ------- [1:0 2:2 32 2] [1] 0 0
s 1.016000000 _0_ AGT  --- 9 cbr 1000 [0 0 0 0] ------- [0:0 2:0 32 0] [2] 0 0
r 1.016000000 _0_ RTR  --- 9 cbr 1000 [0 0 0 0] ------- [0:0 2:0 32 0] [2] 0 0
s 1.016000000 _0_ RTR  --- 9 cbr 1020 [0 0 0 0] ------- [0:0 2:0 32 2] [2] 0 0
D 1.016000000 _0_ IFQ  ARP 6 cbr 1020 [0 0 0 800] ------- [0:0 2:0 32 2] [1] 0 0
s 1.016000000 _1_ AGT  --- 10 cbr 1000 [0 0 0 0] ------- [1:0 2:2 32 0] [2] 0 0
r 1.016000000 _1_ RTR  --- 10 cbr 1000 [0 0 0 0] ------- [1:0 2:2 32 0] [2] 0 0
s 1.016000000 _1_ RTR  --- 10 cbr 1020 [0 0 0 0] ------- [1:0 2:2 32 2] [2] 0 0
s 1.016000000 _3_ AGT  --- 11 cbr 1000 [0 0 0 0] ------- [3:0 2:1 32 0] [2] 0 0
r 1.016000000 _3_ RTR  --- 11 cbr 1000 [0 0 0 0] ------- [3:0 2:1 32 0] [2] 0 0
s 1.016000000 _3_ RTR  --- 11 cbr 1020 [0 0 0 0] ------- [3:0 2:1 32 2] [2] 0 0
D 1.016000000 _3_ IFQ  ARP 8 cbr 1020 [0 0 3 800] ------- [3:0 2:1 32 2] [1] 0 0
r 1.023667850 _2_ MAC  --- 7 cbr 1020 [13a 2 1 800] ------- [1:0 2:2 32 2] [1] 1 0
s 1.023677850 _2_ MAC  --- 0 ACK 38 [0 1 0 0] 
r 1.023692850 _2_ AGT  --- 7 cbr 1020 [13a 2 1 800] ------- [1:0 2:2 32 2] [1] 1 0
r 1.023982342 _1_ MAC  --- 0 ACK 38 [0 1 0 0] 
s 1.024000000 _0_ AGT  --- 12 cbr 1000 [0 0 0 0] ------- [0:0 2:0 32 0] [3] 0 0
r 1.024000000 _0_ RTR  --- 12 cbr 1000 [0 0 0 0] ------- [0:0 2:0 32 0] [3] 0 0
s 1.024000000 _0_ RTR  --- 12 cbr 1020 [0 0 0 0] ------- [0:0 2:0 32 2] [3] 0 0
D 1.024000000 _0_ RTR  CBK 9 cbr 1020 [0 0 0 800] ------- [0:0 2:0 32 2] [2] 0 0
D 1.024000000 _0_ RTR  CBK 12 cbr 1020 [0 0 0 800] ------- [0:0 2:0 32 2] [3] 0 0
s 1.024000000 _1_ AGT  --- 13 cbr 1000 [0 0 0 0] ------- [1:0 2:2 32 0] [3] 0 0
r 1.024000000 _1_ RTR  --- 13 cbr 1000 [0 0 0 0] ------- [1:0 2:2 32 0] [3] 0 0
s 1.024000000 _1_ RTR  --- 13 cbr 1020 [0 0 0 0] ------- [1:0 2:2 32 2] [3] 0 0
s 1.024000000 _3_ AGT  --- 14 cbr 1000 [0 0 0 0] ------- [3:0 2:1 32 0] [3] 0 0
r 1.024000000 _3_ RTR  --- 14 cbr 1000 [0 0 0 0] ------- [3:0 2:1 32 0] [3] 0 0
s 1.024000000 _3_ RTR  --- 14 cbr 1020 [0 0 0 0] ------- [3:0 2:1 32 2] [3] 0 0
D 1.024000000 _3_ RTR  CBK 11 cbr 1020 [0 0 3 800] ------- [3:0 2:1 32 2] [2] 0 0
D 1.024000000 _3_ RTR  CBK 14 cbr 1020 [0 0 3 800] ------- [3:0 2:1 32 2] [3] 0 0
s 1.024052584 _3_ MAC  --- 0 ARP 86 [0 ffffffff 3 806] ------- [REQUEST 3/3 0/2]
r 1.024740929 _1_ MAC  --- 0 ARP 28 [0 ffffffff 3 806] ------- [REQUEST 3/3 0/2]
r 1.024741316 _0_ MAC  --- 0 ARP 28 [0 ffffffff 3 806] ------- [REQUEST 3/3 0/2]
r 1.024741319 _2_ MAC  --- 0 ARP 28 [0 ffffffff 3 806] ------- [REQUEST 3/3 0/2]
s 1.024831319 _2_ MAC  --- 0 RTS 44 [52e 0 2 0] 
r 1.025184090 _0_ MAC  --- 0 RTS 44 [52e 0 2 0] 
s 1.025194090 _0_ MAC  --- 0 CTS 38 [3f4 2 0 0] 
r 1.025498862 _2_ MAC  --- 0 CTS 38 [3f4 2 0 0] 
s 1.025508862 _2_ MAC  --- 0 ARP 86 [13a 0 2 806] ------- [REPLY 2/2 0/0]
r 1.026197633 _0_ MAC  --- 0 ARP 28 [13a 0 2 806] ------- [REPLY 2/2 0/0]
s 1.026207633 _0_ MAC  --- 0 ACK 38 [0 2 0 0] 
r 1.026512405 _2_ MAC  --- 0 ACK 38 [0 2 0 0] 
s 1.026761633 _0_ MAC  --- 0 ARP 86 [0 ffffffff 0 806] ------- [REQUEST 0/0 0/2]
r 1.027450093 _1_ MAC  --- 0 ARP 28 [0 ffffffff 0 806] ------- [REQUEST 0/0 0/2]
r 1.027450365 _3_ MAC  --- 0 ARP 28 [0 ffffffff 0 806] ------- [REQUEST 0/0 0/2]
r 1.027450405 _2_ MAC  --- 0 ARP 28 [0 ffffffff 0 806] ------- [REQUEST 0/0 0/2]
s 1.027680365 _3_ MAC  --- 0 ARP 86 [0 ffffffff 3 806] ------- [REQUEST 3/3 0/2]
r 1.028368710 _1_ MAC  --- 0 ARP 28 [0 ffffffff 3 806] ------- [REQUEST 3/3 0/2]
r 1.028369097 _0_ MAC  --- 0 ARP 28 [0 ffffffff 3 806] ------- [REQUEST 3/3 0/2]
r 1.028369099 _2_ MAC  --- 0 ARP 28 [0 ffffffff 3 806] ------- [REQUEST 3/3 0/2]
s 1.028578710 _1_ MAC  --- 0 RTS 44 [242e 2 1 0] 
r 1.028931202 _2_ MAC  --- 0 RTS 44 [242e 2 1 0] 
s 1.028941202 _2_ MAC  --- 0 CTS 38 [22f4 1 0 0] 
r 1.029245695 _1_ MAC  --- 0 CTS 38 [22f4 1 0 0] 
s 1.029255695 _1_ MAC  --- 10 cbr 1078 [13a 2 1 800] ------- [1:0 2:2 32 2] [2] 0 0
s 1.032000000 _0_ AGT  --- 15 cbr 1000 [0 0 0 0] ------- [0:0 2:0 32 0] [4] 0 0
r 1.032000000 _0_ RTR  --- 15 cbr 1000 [0 0 0 0] ------- [0:0 2:0 32 0] [4] 0 0
s 1.032000000 _0_ RTR  --- 15 cbr 1020 [0 0 0 0] ------- [0:0 2:0 32 2] [4] 0 0
s 1.032000000 _1_ AGT  --- 16 cbr 1000 [0 0 0 0] ------- [1:0 2:2 32 0] [4] 0 0
r 1.032000000 _1_ RTR  --- 16 cbr 1000 [0 0 0 0] ------- [1:0 2:2 32 0] [4] 0 0
s 1.032000000 _1_ RTR  --- 16 cbr 1020 [0 0 0 0] ------- [1:0 2:2 32 2] [4] 0 0
s 1.032000000 _3_ AGT  --- 17 cbr 1000 [0 0 0 0] ------- [3:0 2:1 32 0] [4] 0 0
r 1.032000000 _3_ RTR  --- 17 cbr 1000 [0 0 0 0] ------- [3:0 2:1 32 0] [4] 0 0
s 1.032000000 _3_ RTR  --- 17 cbr 1020 [0 0 0 0] ------- [3:0 2:1 32 2] [4] 0 0
r 1.037880187 _2_ MAC  --- 10 cbr 1020 [13a 2 1 800] ------- [1:0 2:2 32 2] [2] 1 0
s 1.037890187 _2_ MAC  --- 0 ACK 38 [0 1 0 0] 
r 1.037905187 _2_ AGT  --- 10 cbr 1020 [13a 2 1 800] ------- [1:0 2:2 32 2] [2] 1 0
r 1.038194679 _1_ MAC  --- 0 ACK 38 [0 1 0 0] 
s 1.038264187 _2_ MAC  --- 0 RTS 44 [52e 3 2 0] 
s 1.038264959 _0_ MAC  --- 0 ARP 86 [0 ffffffff 0 806] ------- [REQUEST 0/0 0/2]
D 1.038265691 _3_ MAC  COL 0 RTS 44 [52e 3 2 0] 
D 1.038953419 _1_ MAC  COL 0 ARP 86 [0 ffffffff 0 806] ------- [REQUEST 0/0 0/2]
D 1.038953691 _3_ MAC  COL 0 ARP 86 [0 ffffffff 0 806] ------- [REQUEST 0/0 0/2]
s 1.039082959 _0_ MAC  --- 0 RTS 44 [242e 2 0 0] 
r 1.039435730 _2_ MAC  --- 0 RTS 44 [242e 2 0 0] 
s 1.039445730 _2_ MAC  --- 0 CTS 38 [22f4 0 0 0] 
r 1.039750502 _0_ MAC  --- 0 CTS 38 [22f4 0 0 0] 
s 1.039760502 _0_ MAC  --- 15 cbr 1078 [13a 2 0 800] ------- [0:0 2:0 32 2] [4] 0 0
s 1.040000000 _0_ AGT  --- 18 cbr 1000 [0 0 0 0] ------- [0:0 2:0 32 0] [5] 0 0
r 1.040000000 _0_ RTR  --- 18 cbr 1000 [0 0 0 0] ------- [0:0 2:0 32 0] [5] 0 0
s 1.040000000 _0_ RTR  --- 18 cbr 1020 [0 0 0 0] ------- [0:0 2:0 32 2] [5] 0 0
s 1.040000000 _1_ AGT  --- 19 cbr 1000 [0 0 0 0] ------- [1:0 2:2 32 0] [5] 0 0
r 1.040000000 _1_ RTR  --- 19 cbr 1000 [0 0 0 0] ------- [1:0 2:2 32 0] [5] 0 0
s 1.040000000 _1_ RTR  --- 19 cbr 1020 [0 0 0 0] ------- [1:0 2:2 32 2] [5] 0 0
s 1.040000000 _3_ AGT  --- 20 cbr 1000 [0 0 0 0] ------- [3:0 2:1 32 0] [5] 0 0
r 1.040000000 _3_ RTR  --- 20 cbr 1000 [0 0 0 0] ------- [3:0 2:1 32 0] [5] 0 0
s 1.040000000 _3_ RTR  --- 20 cbr 1020 [0 0 0 0] ------- [3:0 2:1 32 2] [5] 0 0
D 1.040000000 _3_ IFQ  ARP 17 cbr 1020 [0 0 3 800] ------- [3:0 2:1 32 2] [4] 0 0
s 1.048000000 _0_ AGT  --- 21 cbr 1000 [0 0 0 0] ------- [0:0 2:0 32 0] [6] 0 0
r 1.048000000 _0_ RTR  --- 21 cbr 1000 [0 0 0 0] ------- [0:0 2:0 32 0] [6] 0 0
s 1.048000000 _0_ RTR  --- 21 cbr 1020 [0 0 0 0] ------- [0:0 2:0 32 2] [6] 0 0
s 1.048000000 _1_ AGT  --- 22 cbr 1000 [0 0 0 0] ------- [1:0 2:2 32 0] [6] 0 0
r 1.048000000 _1_ RTR  --- 22 cbr 1000 [0 0 0 0] ------- [1:0 2:2 32 0] [6] 0 0
s 1.048000000 _1_ RTR  --- 22 cbr 1020 [0 0 0 0] ------- [1:0 2:2 32 2] [6] 0 0
s 1.048000000 _3_ AGT  --- 23 cbr 1000 [0 0 0 0] ------- [3:0 2:1 32 0] [6] 0 0
r 1.048000000 _3_ RTR  --- 23 cbr 1000 [0 0 0 0] ------- [3:0 2:1 32 0] [6] 0 0
s 1.048000000 _3_ RTR  --- 23 cbr 1020 [0 0 0 0] ------- [3:0 2:1 32 2] [6] 0 0
D 1.048000000 _3_ IFQ  ARP 20 cbr 1020 [0 0 3 800] ------- [3:0 2:1 32 2] [5] 0 0
r 1.048385273 _2_ MAC  --- 15 cbr 1020 [13a 2 0 800] ------- [0:0 2:0 32 2] [4] 1 0
s 1.048395273 _2_ MAC  --- 0 ACK 38 [0 0 0 0] 
r 1.048410273 _2_ AGT  --- 15 cbr 1020 [13a 2 0 800] ------- [0:0 2:0 32 2] [4] 1 0
r 1.048700045 _0_ MAC  --- 0 ACK 38 [0 0 0 0] 
s 1.049030045 _0_ MAC  --- 0 RTS 44 [242e 2 0 0] 
r 1.049382816 _2_ MAC  --- 0 RTS 44 [242e 2 0 0] 
s 1.049392816 _2_ MAC  --- 0 CTS 38 [22f4 0 0 0] 
r 1.049697588 _0_ MAC  --- 0 CTS 38 [22f4 0 0 0] 
s 1.049707588 _0_ MAC  --- 18 cbr 1078 [13a 2 0 800] ------- [0:0 2:0 32 2] [5] 0 0
s 1.056000000 _0_ AGT  --- 24 cbr 1000 [0 0 0 0] ------- [0:0 2:0 32 0] [7] 0 0
r 1.056000000 _0_ RTR  --- 24 cbr 1000 [0 0 0 0] ------- [0:0 2:0 32 0] [7] 0 0
s 1.056000000 _0_ RTR  --- 24 cbr 1020 [0 0 0 0] ------- [0:0 2:0 32 2] [7] 0 0
s 1.056000000 _1_ AGT  --- 25 cbr 1000 [0 0 0 0] ------- [1:0 2:2 32 0] [7] 0 0
r 1.056000000 _1_ RTR  --- 25 cbr 1000 [0 0 0 0] ------- [1:0 2:2 32 0] [7] 0 0
s 1.056000000 _1_ RTR  --- 25 cbr 1020 [0 0 0 0] ------- [1:0 2:2 32 2] [7] 0 0
s 1.056000000 _3_ AGT  --- 26 cbr 1000 [0 0 0 0] ------- [3:0 2:1 32 0] [7] 0 0
r 1.056000000 _3_ RTR  --- 26 cbr 1000 [0 0 0 0] ------- [3:0 2:1 32 0] [7] 0 0
s 1.056000000 _3_ RTR  --- 26 cbr 1020 [0 0 0 0] ------- [3:0 2:1 32 2] [7] 0 0
D 1.056000000 _3_ RTR  CBK 23 cbr 1020 [0 0 3 800] ------- [3:0 2:1 32 2] [6] 0 0
D 1.056000000 _3_ RTR  CBK 26 cbr 1020 [0 0 3 800] ------- [3:0 2:1 32 2] [7] 0 0
r 1.058332359 _2_ MAC  --- 18 cbr 1020 [13a 2 0 800] ------- [0:0 2:0 32 2] [5] 1 0
s 1.058342359 _2_ MAC  --- 0 ACK 38 [0 0 0 0] 
r 1.058357359 _2_ AGT  --- 18 cbr 1020 [13a 2 0 800] ------- [0:0 2:0 32 2] [5] 1 0
r 1.058647131 _0_ MAC  --- 0 ACK 38 [0 0 0 0] 
s 1.058716359 _2_ MAC  --- 0 RTS 44 [52e 3 2 0] 
s 1.058717094 _3_ MAC  --- 0 ARP 86 [0 ffffffff 3 806] ------- [REQUEST 3/3 0/2]
D 1.059405439 _1_ MAC  COL 0 ARP 86 [0 ffffffff 3 806] ------- [REQUEST 3/3 0/2]
D 1.059405826 _0_ MAC  COL 0 ARP 86 [0 ffffffff 3 806] ------- [REQUEST 3/3 0/2]
s 1.059899439 _1_ MAC  --- 0 RTS 44 [242e 2 1 0] 
r 1.060251931 _2_ MAC  --- 0 RTS 44 [242e 2 1 0] 
s 1.060261931 _2_ MAC  --- 0 CTS 38 [22f4 1 0 0] 
r 1.060566423 _1_ MAC  --- 0 CTS 38 [22f4 1 0 0] 
s 1.060576423 _1_ MAC  --- 13 cbr 1078 [13a 2 1 800] ------- [1:0 2:2 32 2] [3] 0 0
s 1.064000000 _0_ AGT  --- 27 cbr 1000 [0 0 0 0] ------- [0:0 2:0 32 0] [8] 0 0
r 1.064000000 _0_ RTR  --- 27 cbr 1000 [0 0 0 0] ------- [0:0 2:0 32 0] [8] 0 0
s 1.064000000 _0_ RTR  --- 27 cbr 1020 [0 0 0 0] ------- [0:0 2:0 32 2] [8] 0 0
s 1.064000000 _1_ AGT  --- 28 cbr 1000 [0 0 0 0] ------- [1:0 2:2 32 0] [8] 0 0
r 1.064000000 _1_ RTR  --- 28 cbr 1000 [0 0 0 0] ------- [1:0 2:2 32 0] [8] 0 0
s 1.064000000 _1_ RTR  --- 28 cbr 1020 [0 0 0 0] ------- [1:0 2:2 32 2] [8] 0 0
s 1.064000000 _3_ AGT  --- 29 cbr 1000 [0 0 0 0] ------- [3:0 2:1 32 0] [8] 0 0
r 1.064000000 _3_ RTR  --- 29 cbr 1000 [0 0 0 0] ------- [3:0 2:1 32 0] [8] 0 0
s 1.064000000 _3_ RTR  --- 29 cbr 1020 [0 0 0 0] ------- [3:0 2:1 32 2] [8] 0 0
r 1.069200916 _2_ MAC  --- 13 cbr 1020 [13a 2 1 800] ------- [1:0 2:2 32 2] [3] 1 0
s 1.069210916 _2_ MAC  --- 0 ACK 38 [0 1 0 0] 
r 1.069225916 _2_ AGT  --- 13 cbr 1020 [13a 2 1 800] ------- [1:0 2:2 32 2] [3] 1 0
r 1.069515408 _1_ MAC  --- 0 ACK 38 [0 1 0 0] 
s 1.069645650 _3_ MAC  --- 0 ARP 86 [0 ffffffff 3 806] ------- [REQUEST 3/3 0/2]
r 1.070333995 _1_ MAC  --- 0 ARP 28 [0 ffffffff 3 806] ------- [REQUEST 3/3 0/2]
r 1.070334382 _0_ MAC  --- 0 ARP 28 [0 ffffffff 3 806] ------- [REQUEST 3/3 0/2]
r 1.070334384 _2_ MAC  --- 0 ARP 28 [0 ffffffff 3 806] ------- [REQUEST 3/3 0/2]
s 1.070424382 _0_ MAC  --- 0 RTS 44 [242e 2 0 0] 
r 1.070777153 _2_ MAC  --- 0 RTS 44 [242e 2 0 0] 
s 1.070787153 _2_ MAC  --- 0 CTS 38 [22f4 0 0 0] 
r 1.071091925 _0_ MAC  --- 0 CTS 38 [22f4 0 0 0] 
s 1.071101925 _0_ MAC  --- 21 cbr 1078 [13a 2 0 800] ------- [0:0 2:0 32 2] [6] 0 0
s 1.072000000 _0_ AGT  --- 30 cbr 1000 [0 0 0 0] ------- [0:0 2:0 32 0] [9] 0 0
r 1.072000000 _0_ RTR  --- 30 cbr 1000 [0 0 0 0] ------- [0:0 2:0 32 0] [9] 0 0
s 1.072000000 _0_ RTR  --- 30 cbr 1020 [0 0 0 0] ------- [0:0 2:0 32 2] [9] 0 0
s 1.072000000 _1_ AGT  --- 31 cbr 1000 [0 0 0 0] ------- [1:0 2:2 32 0] [9] 0 0
r 1.072000000 _1_ RTR  --- 31 cbr 1000 [0 0 0 0] ------- [1:0 2:2 32 0] [9] 0 0
s 1.072000000 _1_ RTR  --- 31 cbr 1020 [0 0 0 0] ------- [1:0 2:2 32 2] [9] 0 0
s 1.072000000 _3_ AGT  --- 32 cbr 1000 [0 0 0 0] ------- [3:0 2:1 32 0] [9] 0 0
r 1.072000000 _3_ RTR  --- 32 cbr 1000 [0 0 0 0] ------- [3:0 2:1 32 0] [9] 0 0
s 1.072000000 _3_ RTR  --- 32 cbr 1020 [0 0 0 0] ------- [3:0 2:1 32 2] [9] 0 0
D 1.072000000 _3_ IFQ  ARP 29 cbr 1020 [0 0 3 800] ------- [3:0 2:1 32 2] [8] 0 0
r 1.079726697 _2_ MAC  --- 21 cbr 1020 [13a 2 0 800] ------- [0:0 2:0 32 2] [6] 1 0
s 1.079736697 _2_ MAC  --- 0 ACK 38 [0 0 0 0] 
r 1.079751697 _2_ AGT  --- 21 cbr 1020 [13a 2 0 800] ------- [0:0 2:0 32 2] [6] 1 0
s 1.080000000 _0_ AGT  --- 33 cbr 1000 [0 0 0 0] ------- [0:0 2:0 32 0] [10] 0 0
r 1.080000000 _0_ RTR  --- 33 cbr 1000 [0 0 0 0] ------- [0:0 2:0 32 0] [10] 0 0
s 1.080000000 _0_ RTR  --- 33 cbr 1020 [0 0 0 0] ------- [0:0 2:0 32 2] [10] 0 0
s 1.080000000 _1_ AGT  --- 34 cbr 1000 [0 0 0 0] ------- [1:0 2:2 32 0] [10] 0 0
r 1.080000000 _1_ RTR  --- 34 cbr 1000 [0 0 0 0] ------- [1:0 2:2 32 0] [10] 0 0
s 1.080000000 _1_ RTR  --- 34 cbr 1020 [0 0 0 0] ------- [1:0 2:2 32 2] [10] 0 0
s 1.080000000 _3_ AGT  --- 35 cbr 1000 [0 0 0 0] ------- [3:0 2:1 32 0] [10] 0 0
r 1.080000000 _3_ RTR  --- 35 cbr 1000 [0 0 0 0] ------- [3:0 2:1 32 0] [10] 0 0
s 1.080000000 _3_ RTR  --- 35 cbr 1020 [0 0 0 0] ------- [3:0 2:1 32 2] [10] 0 0
D 1.080000000 _3_ IFQ  ARP 32 cbr 1020 [0 0 3 800] ------- [3:0 2:1 32 2] [9] 0 0
r 1.080041468 _0_ MAC  --- 0 ACK 38 [0 0 0 0] 
s 1.080191189 _1_ MAC  --- 0 RTS 44 [242e 2 1 0] 
r 1.080543681 _2_ MAC  --- 0 RTS 44 [242e 2 1 0] 
s 1.080553681 _2_ MAC  --- 0 CTS 38 [22f4 1 0 0] 
r 1.080858174 _1_ MAC  --- 0 CTS 38 [22f4 1 0 0] 
s 1.080868174 _1_ MAC  --- 16 cbr 1078 [13a 2 1 800] ------- [1:0 2:2 32 2] [4] 0 0
s 1.088000000 _0_ AGT  --- 36 cbr 1000 [0 0 0 0] ------- [0:0 2:0 32 0] [11] 0 0
r 1.088000000 _0_ RTR  --- 36 cbr 1000 [0 0 0 0] ------- [0:0 2:0 32 0] [11] 0 0
s 1.088000000 _0_ RTR  --- 36 cbr 1020 [0 0 0 0] ------- [0:0 2:0 32 2] [11] 0 0
s 1.088000000 _1_ AGT  --- 37 cbr 1000 [0 0 0 0] ------- [1:0 2:2 32 0] [11] 0 0
r 1.088000000 _1_ RTR  --- 37 cbr 1000 [0 0 0 0] ------- [1:0 2:2 32 0] [11] 0 0
s 1.088000000 _1_ RTR  --- 37 cbr 1020 [0 0 0 0] ------- [1:0 2:2 32 2] [11] 0 0
s 1.088000000 _3_ AGT  --- 38 cbr 1000 [0 0 0 0] ------- [3:0 2:1 32 0] [11] 0 0
r 1.088000000 _3_ RTR  --- 38 cbr 1000 [0 0 0 0] ------- [3:0 2:1 32 0] [11] 0 0
s 1.088000000 _3_ RTR  --- 38 cbr 1020 [0 0 0 0] ------- [3:0 2:1 32 2] [11] 0 0
D 1.088000000 _3_ RTR  CBK 35 cbr 1020 [0 0 3 800] ------- [3:0 2:1 32 2] [10] 0 0
D 1.088000000 _3_ RTR  CBK 38 cbr 1020 [0 0 3 800] ------- [3:0 2:1 32 2] [11] 0 0
r 1.089492666 _2_ MAC  --- 16 cbr 1020 [13a 2 1 800] ------- [1:0 2:2 32 2] [4] 1 0
s 1.089502666 _2_ MAC  --- 0 ACK 38 [0 1 0 0] 
r 1.089517666 _2_ AGT  --- 16 cbr 1020 [13a 2 1 800] ------- [1:0 2:2 32 2] [4] 1 0
r 1.089807158 _1_ MAC  --- 0 ACK 38 [0 1 0 0] 
s 1.089917158 _1_ MAC  --- 0 RTS 44 [242e 2 1 0] 
s 1.089917400 _3_ MAC  --- 0 ARP 86 [0 ffffffff 3 806] ------- [REQUEST 3/3 0/2]
D 1.089918135 _2_ MAC  COL 0 RTS 44 [242e 2 1 0] 
D 1.090606132 _0_ MAC  COL 0 ARP 86 [0 ffffffff 3 806] ------- [REQUEST 3/3 0/2]
D 1.090606135 _2_ MAC  COL 0 ARP 86 [0 ffffffff 3 806] ------- [REQUEST 3/3 0/2]
s 1.090995400 _3_ MAC  --- 0 ARP 86 [0 ffffffff 3 806] ------- [REQUEST 3/3 0/2]
r 1.091683745 _1_ MAC  --- 0 ARP 28 [0 ffffffff 3 806] ------- [REQUEST 3/3 0/2]
r 1.091684132 _0_ MAC  --- 0 ARP 28 [0 ffffffff 3 806] ------- [REQUEST 3/3 0/2]
r 1.091684135 _2_ MAC  --- 0 ARP 28 [0 ffffffff 3 806] ------- [REQUEST 3/3 0/2]
s 1.092073745 _1_ MAC  --- 0 RTS 44 [242e 2 1 0] 
r 1.092426238 _2_ MAC  --- 0 RTS 44 [242e 2 1 0] 
s 1.092436238 _2_ MAC  --- 0 CTS 38 [22f4 1 0 0] 
r 1.092740730 _1_ MAC  --- 0 CTS 38 [22f4 1 0 0] 
s 1.092750730 _1_ MAC  --- 19 cbr 1078 [13a 2 1 800] ------- [1:0 2:2 32 2] [5] 0 0
s 1.096000000 _0_ AGT  --- 39 cbr 1000 [0 0 0 0] ------- [0:0 2:0 32 0] [12] 0 0
r 1.096000000 _0_ RTR  --- 39 cbr 1000 [0 0 0 0] ------- [0:0 2:0 32 0] [12] 0 0
s 1.096000000 _0_ RTR  --- 39 cbr 1020 [0 0 0 0] ------- [0:0 2:0 32 2] [12] 0 0
s 1.096000000 _1_ AGT  --- 40 cbr 1000 [0 0 0 0] ------- [1:0 2:2 32 0] [12] 0 0
r 1.096000000 _1_ RTR  --- 40 cbr 1000 [0 0 0 0] ------- [1:0 2:2 32 0] [12] 0 0
s 1.096000000 _1_ RTR  --- 40 cbr 1020 [0 0 0 0] ------- [1:0 2:2 32 2] [12] 0 0
s 1.096000000 _3_ AGT  --- 41 cbr 1000 [0 0 0 0] ------- [3:0 2:1 32 0] [12] 0 0
r 1.096000000 _3_ RTR  --- 41 cbr 1000 [0 0 0 0] ------- [3:0 2:1 32 0] [12] 0 0
s 1.096000000 _3_ RTR  --- 41 cbr 1020 [0 0 0 0] ------- [3:0 2:1 32 2] [12] 0 0
r 1.101375222 _2_ MAC  --- 19 cbr 1020 [13a 2 1 800] ------- [1:0 2:2 32 2] [5] 1 0
s 1.101385222 _2_ MAC  --- 0 ACK 38 [0 1 0 0] 
r 1.101400222 _2_ AGT  --- 19 cbr 1020 [13a 2 1 800] ------- [1:0 2:2 32 2] [5] 1 0
r 1.101689715 _1_ MAC  --- 0 ACK 38 [0 1 0 0] 
s 1.101819994 _0_ MAC  --- 0 RTS 44 [242e 2 0 0] 
r 1.102172765 _2_ MAC  --- 0 RTS 44 [242e 2 0 0] 
s 1.102182765 _2_ MAC  --- 0 CTS 38 [22f4 0 0 0] 
r 1.102487537 _0_ MAC  --- 0 CTS 38 [22f4 0 0 0] 
s 1.102497537 _0_ MAC  --- 24 cbr 1078 [13a 2 0 800] ------- [0:0 2:0 32 2] [7] 0 0
s 1.104000000 _0_ AGT  --- 42 cbr 1000 [0 0 0 0] ------- [0:0 2:0 32 0] [13] 0 0
r 1.104000000 _0_ RTR  --- 42 cbr 1000 [0 0 0 0] ------- [0:0 2:0 32 0] [13] 0 0
s 1.104000000 _0_ RTR  --- 42 cbr 1020 [0 0 0 0] ------- [0:0 2:0 32 2] [13] 0 0
s 1.104000000 _1_ AGT  --- 43 cbr 1000 [0 0 0 0] ------- [1:0 2:2 32 0] [13] 0 0
r 1.104000000 _1_ RTR  --- 43 cbr 1000 [0 0 0 0] ------- [1:0 2:2 32 0] [13] 0 0
s 1.104000000 _1_ RTR  --- 43 cbr 1020 [0 0 0 0] ------- [1:0 2:2 32 2] [13] 0 0
s 1.104000000 _3_ AGT  --- 44 cbr 1000 [0 0 0 0] ------- [3:0 2:1 32 0] [13] 0 0
r 1.104000000 _3_ RTR  --- 44 cbr 1000 [0 0 0 0] ------- [3:0 2:1 32 0] [13] 0 0
s 1.104000000 _3_ RTR  --- 44 cbr 1020 [0 0 0 0] ------- [3:0 2:1 32 2] [13] 0 0
D 1.104000000 _3_ IFQ  ARP 41 cbr 1020 [0 0 3 800] ------- [3:0 2:1 32 2] [12] 0 0
r 1.111122308 _2_ MAC  --- 24 cbr 1020 [13a 2 0 800] ------- [0:0 2:0 32 2] [7] 1 0
s 1.111132308 _2_ MAC  --- 0 ACK 38 [0 0 0 0] 
r 1.111147308 _2_ AGT  --- 24 cbr 1020 [13a 2 0 800] ------- [0:0 2:0 32 2] [7] 1 0
r 1.111437080 _0_ MAC  --- 0 ACK 38 [0 0 0 0] 
s 1.111567043 _3_ MAC  --- 0 ARP 86 [0 ffffffff 3 806] ------- [REQUEST 3/3 0/2]
s 1.112000000 _0_ AGT  --- 46 cbr 1000 [0 0 0 0] ------- [0:0 2:0 32 0] [14] 0 0
r 1.112000000 _0_ RTR  --- 46 cbr 1000 [0 0 0 0] ------- [0:0 2:0 32 0] [14] 0 0
s 1.112000000 _0_ RTR  --- 46 cbr 1020 [0 0 0 0] ------- [0:0 2:0 32 2] [14] 0 0
s 1.112000000 _1_ AGT  --- 47 cbr 1000 [0 0 0 0] ------- [1:0 2:2 32 0] [14] 0 0
r 1.112000000 _1_ RTR  --- 47 cbr 1000 [0 0 0 0] ------- [1:0 2:2 32 0] [14] 0 0
s 1.112000000 _1_ RTR  --- 47 cbr 1020 [0 0 0 0] ------- [1:0 2:2 32 2] [14] 0 0
s 1.112000000 _3_ AGT  --- 48 cbr 1000 [0 0 0 0] ------- [3:0 2:1 32 0] [14] 0 0
r 1.112000000 _3_ RTR  --- 48 cbr 1000 [0 0 0 0] ------- [3:0 2:1 32 0] [14] 0 0
s 1.112000000 _3_ RTR  --- 48 cbr 1020 [0 0 0 0] ------- [3:0 2:1 32 2] [14] 0 0
D 1.112000000 _3_ IFQ  ARP 44 cbr 1020 [0 0 3 800] ------- [3:0 2:1 32 2] [13] 0 0
r 1.112255388 _1_ MAC  --- 0 ARP 28 [0 ffffffff 3 806] ------- [REQUEST 3/3 0/2]
r 1.112255775 _0_ MAC  --- 0 ARP 28 [0 ffffffff 3 806] ------- [REQUEST 3/3 0/2]
r 1.112255777 _2_ MAC  --- 0 ARP 28 [0 ffffffff 3 806] ------- [REQUEST 3/3 0/2]
s 1.112305043 _3_ MAC  --- 0 ARP 86 [0 ffffffff 3 806] ------- [REQUEST 3/3 0/2]
r 1.112993388 _1_ MAC  --- 0 ARP 28 [0 ffffffff 3 806] ------- [REQUEST 3/3 0/2]
r 1.112993775 _0_ MAC  --- 0 ARP 28 [0 ffffffff 3 806] ------- [REQUEST 3/3 0/2]
r 1.112993777 _2_ MAC  --- 0 ARP 28 [0 ffffffff 3 806] ------- [REQUEST 3/3 0/2]
s 1.113143775 _0_ MAC  --- 0 RTS 44 [242e 2 0 0] 
r 1.113496546 _2_ MAC  --- 0 RTS 44 [242e 2 0 0] 
s 1.113506546 _2_ MAC  --- 0 CTS 38 [22f4 0 0 0] 
r 1.113811318 _0_ MAC  --- 0 CTS 38 [22f4 0 0 0] 
s 1.113821318 _0_ MAC  --- 27 cbr 1078 [13a 2 0 800] ------- [0:0 2:0 32 2] [8] 0 0
s 1.114331369 _1_ RTR  --- 45 message 32 [0 0 0 0] ------- [1:255 -1:255 32 0] 
s 1.120000000 _0_ AGT  --- 49 cbr 1000 [0 0 0 0] ------- [0:0 2:0 32 0] [15] 0 0
r 1.120000000 _0_ RTR  --- 49 cbr 1000 [0 0 0 0] ------- [0:0 2:0 32 0] [15] 0 0
s 1.120000000 _0_ RTR  --- 49 cbr 1020 [0 0 0 0] ------- [0:0 2:0 32 2] [15] 0 0
s 1.120000000 _1_ AGT  --- 50 cbr 1000 [0 0 0 0] ------- [1:0 2:2 32 0] [15] 0 0
r 1.120000000 _1_ RTR  --- 50 cbr 1000 [0 0 0 0] ------- [1:0 2:2 32 0] [15] 0 0
s 1.120000000 _1_ RTR  --- 50 cbr 1020 [0 0 0 0] ------- [1:0 2:2 32 2] [15] 0 0
s 1.120000000 _3_ AGT  --- 51 cbr 1000 [0 0 0 0] ------- [3:0 2:1 32 0] [15] 0 0
r 1.120000000 _3_ RTR  --- 51 cbr 1000 [0 0 0 0] ------- [3:0 2:1 32 0] [15] 0 0
s 1.120000000 _3_ RTR  --- 51 cbr 1020 [0 0 0 0] ------- [3:0 2:1 32 2] [15] 0 0
D 1.120000000 _3_ RTR  CBK 48 cbr 1020 [0 0 3 800] ------- [3:0 2:1 32 2] [14] 0 0
D 1.120000000 _3_ RTR  CBK 51 cbr 1020 [0 0 3 800] ------- [3:0 2:1 32 2] [15] 0 0
r 1.122446089 _2_ MAC  --- 27 cbr 1020 [13a 2 0 800] ------- [0:0 2:0 32 2] [8] 1 0
s 1.122456089 _2_ MAC  --- 0 ACK 38 [0 0 0 0] 
r 1.122471089 _2_ AGT  --- 27 cbr 1020 [13a 2 0 800] ------- [0:0 2:0 32 2] [8] 1 0
r 1.122760861 _0_ MAC  --- 0 ACK 38 [0 0 0 0] 
s 1.122830582 _1_ MAC  --- 0 RTS 44 [242e 2 1 0] 
r 1.123183074 _2_ MAC  --- 0 RTS 44 [242e 2 1 0] 
s 1.123193074 _2_ MAC  --- 0 CTS 38 [22f4 1 0 0] 
r 1.123497566 _1_ MAC  --- 0 CTS 38 [22f4 1 0 0] 
s 1.123507566 _1_ MAC  --- 22 cbr 1078 [13a 2 1 800] ------- [1:0 2:2 32 2] [6] 0 0
s 1.128000000 _0_ AGT  --- 52 cbr 1000 [0 0 0 0] ------- [0:0 2:0 32 0] [16] 0 0
r 1.128000000 _0_ RTR  --- 52 cbr 1000 [0 0 0 0] ------- [0:0 2:0 32 0] [16] 0 0
s 1.128000000 _0_ RTR  --- 52 cbr 1020 [0 0 0 0] ------- [0:0 2:0 32 2] [16] 0 0
s 1.128000000 _1_ AGT  --- 53 cbr 1000 [0 0 0 0] ------- [1:0 2:2 32 0] [16] 0 0
r 1.128000000 _1_ RTR  --- 53 cbr 1000 [0 0 0 0] ------- [1:0 2:2 32 0] [16] 0 0
s 1.128000000 _1_ RTR  --- 53 cbr 1020 [0 0 0 0] ------- [1:0 2:2 32 2] [16] 0 0
s 1.128000000 _3_ AGT  --- 54 cbr 1000 [0 0 0 0] ------- [3:0 2:1 32 0] [16] 0 0
r 1.128000000 _3_ RTR  --- 54 cbr 1000 [0 0 0 0] ------- [3:0 2:1 32 0] [16] 0 0
s 1.128000000 _3_ RTR  --- 54 cbr 1020 [0 0 0 0] ------- [3:0 2:1 32 2] [16] 0 0
r 1.132132059 _2_ MAC  --- 22 cbr 1020 [13a 2 1 800] ------- [1:0 2:2 32 2] [6] 1 0
s 1.132142059 _2_ MAC  --- 0 ACK 38 [0 1 0 0] 
r 1.132157059 _2_ AGT  --- 22 cbr 1020 [13a 2 1 800] ------- [1:0 2:2 32 2] [6] 1 0
r 1.132446551 _1_ MAC  --- 0 ACK 38 [0 1 0 0] 
s 1.132596793 _3_ MAC  --- 0 ARP 86 [0 ffffffff 3 806] ------- [REQUEST 3/3 0/2]
r 1.133285138 _1_ MAC  --- 0 ARP 28 [0 ffffffff 3 806] ------- [REQUEST 3/3 0/2]
r 1.133285525 _0_ MAC  --- 0 ARP 28 [0 ffffffff 3 806] ------- [REQUEST 3/3 0/2]
r 1.133285527 _2_ MAC  --- 0 ARP 28 [0 ffffffff 3 806] ------- [REQUEST 3/3 0/2]
s 1.133395138 _1_ MAC  --- 45 message 90 [0 ffffffff 1 800] ------- [1:255 -1:255 32 0] 
r 1.134115483 _3_ MAC  --- 45 message 32 [0 ffffffff 1 800] ------- [1:255 -1:255 32 0] 
r 1.134115598 _0_ MAC  --- 45 message 32 [0 ffffffff 1 800] ------- [1:255 -1:255 32 0] 
r 1.134115630 _2_ MAC  --- 45 message 32 [0 ffffffff 1 800] ------- [1:255 -1:255 32 0] 
r 1.134140483 _3_ RTR  --- 45 message 32 [0 ffffffff 1 800] ------- [1:255 -1:255 32 0] 
r 1.134140598 _0_ RTR  --- 45 message 32 [0 ffffffff 1 800] ------- [1:255 -1:255 32 0] 
r 1.134140630 _2_ RTR  --- 45 message 32 [0 ffffffff 1 800] ------- [1:255 -1:255 32 0] 
s 1.134245138 _1_ MAC  --- 0 RTS 44 [242e 2 1 0] 
r 1.134597630 _2_ MAC  --- 0 RTS 44 [242e 2 1 0] 
s 1.134607630 _2_ MAC  --- 0 CTS 38 [22f4 1 0 0] 
r 1.134912123 _1_ MAC  --- 0 CTS 38 [22f4 1 0 0] 
s 1.134922123 _1_ MAC  --- 25 cbr 1078 [13a 2 1 800] ------- [1:0 2:2 32 2] [7] 0 0
s 1.136000000 _0_ AGT  --- 55 cbr 1000 [0 0 0 0] ------- [0:0 2:0 32 0] [17] 0 0
r 1.136000000 _0_ RTR  --- 55 cbr 1000 [0 0 0 0] ------- [0:0 2:0 32 0] [17] 0 0
s 1.136000000 _0_ RTR  --- 55 cbr 1020 [0 0 0 0] ------- [0:0 2:0 32 2] [17] 0 0
s 1.136000000 _1_ AGT  --- 56 cbr 1000 [0 0 0 0] ------- [1:0 2:2 32 0] [17] 0 0
r 1.136000000 _1_ RTR  --- 56 cbr 1000 [0 0 0 0] ------- [1:0 2:2 32 0] [17] 0 0
s 1.136000000 _1_ RTR  --- 56 cbr 1020 [0 0 0 0] ------- [1:0 2:2 32 2] [17] 0 0
s 1.136000000 _3_ AGT  --- 57 cbr 1000 [0 0 0 0] ------- [3:0 2:1 32 0] [17] 0 0
r 1.136000000 _3_ RTR  --- 57 cbr 1000 [0 0 0 0] ------- [3:0 2:1 32 0] [17] 0 0
s 1.136000000 _3_ RTR  --- 57 cbr 1020 [0 0 0 0] ------- [3:0 2:1 32 2] [17] 0 0
D 1.136000000 _3_ IFQ  ARP 54 cbr 1020 [0 0 3 800] ------- [3:0 2:1 32 2] [16] 0 0
r 1.143546615 _2_ MAC  --- 25 cbr 1020 [13a 2 1 800] ------- [1:0 2:2 32 2] [7] 1 0
s 1.143556615 _2_ MAC  --- 0 ACK 38 [0 1 0 0] 
r 1.143571615 _2_ AGT  --- 25 cbr 1020 [13a 2 1 800] ------- [1:0 2:2 32 2] [7] 1 0