n -t * -s 0  -x 310 -y 385 -Z 0 -z 20  -v circle -c black
n -t * -s 1  -x 713 -y 399 -Z 0 -z 20  -v circle -c black
n -t * -s 2  -x 526 -y 335 -Z 0 -z 20  -v circle -c black
n -t * -s 3  -x 521 -y 143 -Z 0 -z 20  -v circle -c black
V -t * -v 1.0a5 -a 0
W -t * -x 813 -y 499
A -t * -n 1 -p 0 -o 0x7fffffff -c 30 -a 1
A -t * -h 1 -m 1073741823 -s 0
+ -t 0.184410103 -s 0 -d -1 -p message -e 32 -c 2 -a 0 -i 0 -k RTR 
- -t 0.184410103 -s 0 -d -1 -p message -e 32 -c 2 -a 0 -i 0 -k RTR
h -t 0.184410103 -s 0 -d -1 -p message -e 32 -c 2 -a 0 -i 0 -k RTR
+ -t 0.184845103 -s 0 -d -1 -p message -e 90 -c 2 -a 0 -i 0 -k MAC 
- -t 0.184845103 -s 0 -d -1 -p message -e 90 -c 2 -a 0 -i 0 -k MAC
h -t 0.184845103 -s 0 -d -1 -p message -e 90 -c 2 -a 0 -i 0 -k MAC
r -t 0.185565842 -s 2 -d -1 -p message -e 32 -c 2 -a 0 -i 0 -k MAC
r -t 0.185590842 -s 2 -d -1 -p message -e 32 -c 2 -a 0 -i 0 -k RTR
+ -t 0.634286779 -s 3 -d -1 -p message -e 32 -c 2 -a 0 -i 1 -k RTR 
- -t 0.634286779 -s 3 -d -1 -p message -e 32 -c 2 -a 0 -i 1 -k RTR
h -t 0.634286779 -s 3 -d -1 -p message -e 32 -c 2 -a 0 -i 1 -k RTR
+ -t 0.634901779 -s 3 -d -1 -p message -e 90 -c 2 -a 0 -i 1 -k MAC 
- -t 0.634901779 -s 3 -d -1 -p message -e 90 -c 2 -a 0 -i 1 -k MAC
h -t 0.634901779 -s 3 -d -1 -p message -e 90 -c 2 -a 0 -i 1 -k MAC
r -t 0.635622419 -s 2 -d -1 -p message -e 32 -c 2 -a 0 -i 1 -k MAC
r -t 0.635647419 -s 2 -d -1 -p message -e 32 -c 2 -a 0 -i 1 -k RTR
+ -t 0.883484847 -s 1 -d -1 -p message -e 32 -c 2 -a 0 -i 2 -k RTR 
- -t 0.883484847 -s 1 -d -1 -p message -e 32 -c 2 -a 0 -i 2 -k RTR
h -t 0.883484847 -s 1 -d -1 -p message -e 32 -c 2 -a 0 -i 2 -k RTR
+ -t 0.883719847 -s 1 -d -1 -p message -e 90 -c 2 -a 0 -i 2 -k MAC 
- -t 0.883719847 -s 1 -d -1 -p message -e 90 -c 2 -a 0 -i 2 -k MAC
h -t 0.883719847 -s 1 -d -1 -p message -e 90 -c 2 -a 0 -i 2 -k MAC
r -t 0.884440505 -s 2 -d -1 -p message -e 32 -c 2 -a 0 -i 2 -k MAC
r -t 0.884465505 -s 2 -d -1 -p message -e 32 -c 2 -a 0 -i 2 -k RTR
+ -t 1.000000000 -s 0 -d -1 -p tcp -e 40 -c 2 -a 0 -i 3 -k AGT 
- -t 1.000000000 -s 0 -d -1 -p tcp -e 40 -c 2 -a 0 -i 3 -k AGT
h -t 1.000000000 -s 0 -d -1 -p tcp -e 40 -c 2 -a 0 -i 3 -k AGT
+ -t 1.000000000 -s 3 -d -1 -p tcp -e 40 -c 2 -a 0 -i 4 -k AGT 
- -t 1.000000000 -s 3 -d -1 -p tcp -e 40 -c 2 -a 0 -i 4 -k AGT
h -t 1.000000000 -s 3 -d -1 -p tcp -e 40 -c 2 -a 0 -i 4 -k AGT
+ -t 1.000000000 -s 1 -d -1 -p tcp -e 40 -c 2 -a 0 -i 5 -k AGT 
- -t 1.000000000 -s 1 -d -1 -p tcp -e 40 -c 2 -a 0 -i 5 -k AGT
h -t 1.000000000 -s 1 -d -1 -p tcp -e 40 -c 2 -a 0 -i 5 -k AGT
+ -t 1.599252296 -s 2 -d -1 -p message -e 32 -c 2 -a 0 -i 6 -k RTR 
- -t 1.599252296 -s 2 -d -1 -p message -e 32 -c 2 -a 0 -i 6 -k RTR
h -t 1.599252296 -s 2 -d -1 -p message -e 32 -c 2 -a 0 -i 6 -k RTR
+ -t 1.599527296 -s 2 -d -1 -p message -e 90 -c 2 -a 0 -i 6 -k MAC 
- -t 1.599527296 -s 2 -d -1 -p message -e 90 -c 2 -a 0 -i 6 -k MAC
h -t 1.599527296 -s 2 -d -1 -p message -e 90 -c 2 -a 0 -i 6 -k MAC
r -t 1.600247936 -s 3 -d -1 -p message -e 32 -c 2 -a 0 -i 6 -k MAC
r -t 1.600247954 -s 1 -d -1 -p message -e 32 -c 2 -a 0 -i 6 -k MAC
r -t 1.600248035 -s 0 -d -1 -p message -e 32 -c 2 -a 0 -i 6 -k MAC
r -t 1.600272936 -s 3 -d -1 -p message -e 32 -c 2 -a 0 -i 6 -k RTR
+ -t 1.600272936 -s 3 -d 2 -p tcp -e 80 -c 2 -a 0 -i 4 -k RTR 
- -t 1.600272936 -s 3 -d 2 -p tcp -e 80 -c 2 -a 0 -i 4 -k RTR
h -t 1.600272936 -s 3 -d 2 -p tcp -e 80 -c 2 -a 0 -i 4 -k RTR
r -t 1.600272954 -s 1 -d -1 -p message -e 32 -c 2 -a 0 -i 6 -k RTR
+ -t 1.600272954 -s 1 -d 2 -p tcp -e 80 -c 2 -a 0 -i 5 -k RTR 
- -t 1.600272954 -s 1 -d 2 -p tcp -e 80 -c 2 -a 0 -i 5 -k RTR
h -t 1.600272954 -s 1 -d 2 -p tcp -e 80 -c 2 -a 0 -i 5 -k RTR
r -t 1.600273035 -s 0 -d -1 -p message -e 32 -c 2 -a 0 -i 6 -k RTR
+ -t 1.600273035 -s 0 -d 2 -p tcp -e 80 -c 2 -a 0 -i 3 -k RTR 
- -t 1.600273035 -s 0 -d 2 -p tcp -e 80 -c 2 -a 0 -i 3 -k RTR
h -t 1.600273035 -s 0 -d 2 -p tcp -e 80 -c 2 -a 0 -i 3 -k RTR
+ -t 1.600347936 -s 3 -d -1 -p ARP -e 86 -c 2 -a 0 -i 0 -k MAC 
- -t 1.600347936 -s 3 -d -1 -p ARP -e 86 -c 2 -a 0 -i 0 -k MAC
h -t 1.600347936 -s 3 -d -1 -p ARP -e 86 -c 2 -a 0 -i 0 -k MAC
r -t 1.601036576 -s 2 -d -1 -p ARP -e 28 -c 2 -a 0 -i 0 -k MAC
+ -t 1.601266576 -s 2 -d -1 -p RTS -e 44 -c 2 -a 0 -i 0 -k MAC 
- -t 1.601266576 -s 2 -d -1 -p RTS -e 44 -c 2 -a 0 -i 0 -k MAC
h -t 1.601266576 -s 2 -d -1 -p RTS -e 44 -c 2 -a 0 -i 0 -k MAC
r -t 1.601619216 -s 3 -d -1 -p RTS -e 44 -c 2 -a 0 -i 0 -k MAC
+ -t 1.601629216 -s 3 -d -1 -p CTS -e 38 -c 2 -a 0 -i 0 -k MAC 
- -t 1.601629216 -s 3 -d -1 -p CTS -e 38 -c 2 -a 0 -i 0 -k MAC
h -t 1.601629216 -s 3 -d -1 -p CTS -e 38 -c 2 -a 0 -i 0 -k MAC
r -t 1.601933856 -s 2 -d -1 -p CTS -e 38 -c 2 -a 0 -i 0 -k MAC
+ -t 1.601943856 -s 2 -d -1 -p ARP -e 86 -c 2 -a 0 -i 0 -k MAC 
- -t 1.601943856 -s 2 -d -1 -p ARP -e 86 -c 2 -a 0 -i 0 -k MAC
h -t 1.601943856 -s 2 -d -1 -p ARP -e 86 -c 2 -a 0 -i 0 -k MAC
r -t 1.602632497 -s 3 -d -1 -p ARP -e 28 -c 2 -a 0 -i 0 -k MAC
+ -t 1.602642497 -s 3 -d -1 -p ACK -e 38 -c 2 -a 0 -i 0 -k MAC 
- -t 1.602642497 -s 3 -d -1 -p ACK -e 38 -c 2 -a 0 -i 0 -k MAC
h -t 1.602642497 -s 3 -d -1 -p ACK -e 38 -c 2 -a 0 -i 0 -k MAC
r -t 1.602947137 -s 2 -d -1 -p ACK -e 38 -c 2 -a 0 -i 0 -k MAC
+ -t 1.603576497 -s 3 -d -1 -p RTS -e 44 -c 2 -a 0 -i 0 -k MAC 
- -t 1.603576497 -s 3 -d -1 -p RTS -e 44 -c 2 -a 0 -i 0 -k MAC
h -t 1.603576497 -s 3 -d -1 -p RTS -e 44 -c 2 -a 0 -i 0 -k MAC
r -t 1.603929137 -s 2 -d -1 -p RTS -e 44 -c 2 -a 0 -i 0 -k MAC
+ -t 1.603939137 -s 2 -d -1 -p CTS -e 38 -c 2 -a 0 -i 0 -k MAC 
- -t 1.603939137 -s 2 -d -1 -p CTS -e 38 -c 2 -a 0 -i 0 -k MAC
h -t 1.603939137 -s 2 -d -1 -p CTS -e 38 -c 2 -a 0 -i 0 -k MAC
r -t 1.604243777 -s 3 -d -1 -p CTS -e 38 -c 2 -a 0 -i 0 -k MAC
+ -t 1.604253777 -s 3 -d 2 -p tcp -e 138 -c 2 -a 0 -i 4 -k MAC 
- -t 1.604253777 -s 3 -d 2 -p tcp -e 138 -c 2 -a 0 -i 4 -k MAC
h -t 1.604253777 -s 3 -d 2 -p tcp -e 138 -c 2 -a 0 -i 4 -k MAC
r -t 1.605358417 -s 2 -d 2 -p tcp -e 80 -c 2 -a 0 -i 4 -k MAC
+ -t 1.605368417 -s 2 -d -1 -p ACK -e 38 -c 2 -a 0 -i 0 -k MAC 
- -t 1.605368417 -s 2 -d -1 -p ACK -e 38 -c 2 -a 0 -i 0 -k MAC
h -t 1.605368417 -s 2 -d -1 -p ACK -e 38 -c 2 -a 0 -i 0 -k MAC
r -t 1.605383417 -s 2 -d 2 -p tcp -e 80 -c 2 -a 0 -i 4 -k AGT
+ -t 1.605383417 -s 2 -d -1 -p ack -e 40 -c 2 -a 0 -i 7 -k AGT 
- -t 1.605383417 -s 2 -d -1 -p ack -e 40 -c 2 -a 0 -i 7 -k AGT
h -t 1.605383417 -s 2 -d -1 -p ack -e 40 -c 2 -a 0 -i 7 -k AGT
+ -t 1.605383417 -s 2 -d 3 -p ack -e 60 -c 2 -a 0 -i 7 -k RTR 
- -t 1.605383417 -s 2 -d 3 -p ack -e 60 -c 2 -a 0 -i 7 -k RTR
h -t 1.605383417 -s 2 -d 3 -p ack -e 60 -c 2 -a 0 -i 7 -k RTR
r -t 1.605673058 -s 3 -d -1 -p ACK -e 38 -c 2 -a 0 -i 0 -k MAC
+ -t 1.605792844 -s 1 -d -1 -p ARP -e 86 -c 2 -a 0 -i 0 -k MAC 
- -t 1.605792844 -s 1 -d -1 -p ARP -e 86 -c 2 -a 0 -i 0 -k MAC
h -t 1.605792844 -s 1 -d -1 -p ARP -e 86 -c 2 -a 0 -i 0 -k MAC
r -t 1.606481503 -s 2 -d -1 -p ARP -e 28 -c 2 -a 0 -i 0 -k MAC
+ -t 1.607011503 -s 2 -d -1 -p RTS -e 44 -c 2 -a 0 -i 0 -k MAC 
- -t 1.607011503 -s 2 -d -1 -p RTS -e 44 -c 2 -a 0 -i 0 -k MAC
h -t 1.607011503 -s 2 -d -1 -p RTS -e 44 -c 2 -a 0 -i 0 -k MAC
r -t 1.607364143 -s 3 -d -1 -p RTS -e 44 -c 2 -a 0 -i 0 -k MAC
+ -t 1.607374143 -s 3 -d -1 -p CTS -e 38 -c 2 -a 0 -i 0 -k MAC 
- -t 1.607374143 -s 3 -d -1 -p CTS -e 38 -c 2 -a 0 -i 0 -k MAC
h -t 1.607374143 -s 3 -d -1 -p CTS -e 38 -c 2 -a 0 -i 0 -k MAC
r -t 1.607678783 -s 2 -d -1 -p CTS -e 38 -c 2 -a 0 -i 0 -k MAC
+ -t 1.607688783 -s 2 -d 3 -p ack -e 118 -c 2 -a 0 -i 7 -k MAC 
- -t 1.607688783 -s 2 -d 3 -p ack -e 118 -c 2 -a 0 -i 7 -k MAC
h -t 1.607688783 -s 2 -d 3 -p ack -e 118 -c 2 -a 0 -i 7 -k MAC
r -t 1.608633423 -s 3 -d 3 -p ack -e 60 -c 2 -a 0 -i 7 -k MAC
+ -t 1.608643423 -s 3 -d -1 -p ACK -e 38 -c 2 -a 0 -i 0 -k MAC 
- -t 1.608643423 -s 3 -d -1 -p ACK -e 38 -c 2 -a 0 -i 0 -k MAC
h -t 1.608643423 -s 3 -d -1 -p ACK -e 38 -c 2 -a 0 -i 0 -k MAC
r -t 1.608658423 -s 3 -d 3 -p ack -e 60 -c 2 -a 0 -i 7 -k AGT
+ -t 1.608658423 -s 3 -d -1 -p tcp -e 1540 -c 2 -a 0 -i 8 -k AGT 
- -t 1.608658423 -s 3 -d -1 -p tcp -e 1540 -c 2 -a 0 -i 8 -k AGT
h -t 1.608658423 -s 3 -d -1 -p tcp -e 1540 -c 2 -a 0 -i 8 -k AGT
+ -t 1.608658423 -s 3 -d 2 -p tcp -e 1560 -c 2 -a 0 -i 8 -k RTR 
- -t 1.608658423 -s 3 -d 2 -p tcp -e 1560 -c 2 -a 0 -i 8 -k RTR
h -t 1.608658423 -s 3 -d 2 -p tcp -e 1560 -c 2 -a 0 -i 8 -k RTR
+ -t 1.608658423 -s 3 -d -1 -p tcp -e 1540 -c 2 -a 0 -i 9 -k AGT 
- -t 1.608658423 -s 3 -d -1 -p tcp -e 1540 -c 2 -a 0 -i 9 -k AGT
h -t 1.608658423 -s 3 -d -1 -p tcp -e 1540 -c 2 -a 0 -i 9 -k AGT
+ -t 1.608658423 -s 3 -d 2 -p tcp -e 1560 -c 2 -a 0 -i 9 -k RTR 
- -t 1.608658423 -s 3 -d 2 -p tcp -e 1560 -c 2 -a 0 -i 9 -k RTR
h -t 1.608658423 -s 3 -d 2 -p tcp -e 1560 -c 2 -a 0 -i 9 -k RTR
r -t 1.608948063 -s 2 -d -1 -p ACK -e 38 -c 2 -a 0 -i 0 -k MAC
+ -t 1.609197423 -s 3 -d -1 -p RTS -e 44 -c 2 -a 0 -i 0 -k MAC 
- -t 1.609197423 -s 3 -d -1 -p RTS -e 44 -c 2 -a 0 -i 0 -k MAC
h -t 1.609197423 -s 3 -d -1 -p RTS -e 44 -c 2 -a 0 -i 0 -k MAC
r -t 1.609550063 -s 2 -d -1 -p RTS -e 44 -c 2 -a 0 -i 0 -k MAC
+ -t 1.609560063 -s 2 -d -1 -p CTS -e 38 -c 2 -a 0 -i 0 -k MAC 
- -t 1.609560063 -s 2 -d -1 -p CTS -e 38 -c 2 -a 0 -i 0 -k MAC
h -t 1.609560063 -s 2 -d -1 -p CTS -e 38 -c 2 -a 0 -i 0 -k MAC
r -t 1.609864704 -s 3 -d -1 -p CTS -e 38 -c 2 -a 0 -i 0 -k MAC
+ -t 1.609874704 -s 3 -d 2 -p tcp -e 1618 -c 2 -a 0 -i 8 -k MAC 
- -t 1.609874704 -s 3 -d 2 -p tcp -e 1618 -c 2 -a 0 -i 8 -k MAC
h -t 1.609874704 -s 3 -d 2 -p tcp -e 1618 -c 2 -a 0 -i 8 -k MAC
r -t 1.622819344 -s 2 -d 2 -p tcp -e 1560 -c 2 -a 0 -i 8 -k MAC
+ -t 1.622829344 -s 2 -d -1 -p ACK -e 38 -c 2 -a 0 -i 0 -k MAC 
- -t 1.622829344 -s 2 -d -1 -p ACK -e 38 -c 2 -a 0 -i 0 -k MAC
h -t 1.622829344 -s 2 -d -1 -p ACK -e 38 -c 2 -a 0 -i 0 -k MAC
r -t 1.622844344 -s 2 -d 2 -p tcp -e 1560 -c 2 -a 0 -i 8 -k AGT
+ -t 1.622844344 -s 2 -d -1 -p ack -e 40 -c 2 -a 0 -i 10 -k AGT 
- -t 1.622844344 -s 2 -d -1 -p ack -e 40 -c 2 -a 0 -i 10 -k AGT
h -t 1.622844344 -s 2 -d -1 -p ack -e 40 -c 2 -a 0 -i 10 -k AGT
+ -t 1.622844344 -s 2 -d 3 -p ack -e 60 -c 2 -a 0 -i 10 -k RTR 
- -t 1.622844344 -s 2 -d 3 -p ack -e 60 -c 2 -a 0 -i 10 -k RTR
h -t 1.622844344 -s 2 -d 3 -p ack -e 60 -c 2 -a 0 -i 10 -k RTR
r -t 1.623133984 -s 3 -d -1 -p ACK -e 38 -c 2 -a 0 -i 0 -k MAC
+ -t 1.623303344 -s 2 -d -1 -p RTS -e 44 -c 2 -a 0 -i 0 -k MAC 
- -t 1.623303344 -s 2 -d -1 -p RTS -e 44 -c 2 -a 0 -i 0 -k MAC
h -t 1.623303344 -s 2 -d -1 -p RTS -e 44 -c 2 -a 0 -i 0 -k MAC
r -t 1.623656003 -s 1 -d -1 -p RTS -e 44 -c 2 -a 0 -i 0 -k MAC
+ -t 1.623666003 -s 1 -d -1 -p CTS -e 38 -c 2 -a 0 -i 0 -k MAC 
- -t 1.623666003 -s 1 -d -1 -p CTS -e 38 -c 2 -a 0 -i 0 -k MAC
h -t 1.623666003 -s 1 -d -1 -p CTS -e 38 -c 2 -a 0 -i 0 -k MAC
r -t 1.623970662 -s 2 -d -1 -p CTS -e 38 -c 2 -a 0 -i 0 -k MAC
+ -t 1.623980662 -s 2 -d -1 -p ARP -e 86 -c 2 -a 0 -i 0 -k MAC 
- -t 1.623980662 -s 2 -d -1 -p ARP -e 86 -c 2 -a 0 -i 0 -k MAC
h -t 1.623980662 -s 2 -d -1 -p ARP -e 86 -c 2 -a 0 -i 0 -k MAC
r -t 1.624669320 -s 1 -d -1 -p ARP -e 28 -c 2 -a 0 -i 0 -k MAC
+ -t 1.624679320 -s 1 -d -1 -p ACK -e 38 -c 2 -a 0 -i 0 -k MAC 
- -t 1.624679320 -s 1 -d -1 -p ACK -e 38 -c 2 -a 0 -i 0 -k MAC
h -t 1.624679320 -s 1 -d -1 -p ACK -e 38 -c 2 -a 0 -i 0 -k MAC
r -t 1.624983979 -s 2 -d -1 -p ACK -e 38 -c 2 -a 0 -i 0 -k MAC
+ -t 1.625113979 -s 2 -d -1 -p RTS -e 44 -c 2 -a 0 -i 0 -k MAC 
- -t 1.625113979 -s 2 -d -1 -p RTS -e 44 -c 2 -a 0 -i 0 -k MAC
h -t 1.625113979 -s 2 -d -1 -p RTS -e 44 -c 2 -a 0 -i 0 -k MAC
r -t 1.625466619 -s 3 -d -1 -p RTS -e 44 -c 2 -a 0 -i 0 -k MAC
+ -t 1.625476619 -s 3 -d -1 -p CTS -e 38 -c 2 -a 0 -i 0 -k MAC 
- -t 1.625476619 -s 3 -d -1 -p CTS -e 38 -c 2 -a 0 -i 0 -k MAC
h -t 1.625476619 -s 3 -d -1 -p CTS -e 38 -c 2 -a 0 -i 0 -k MAC
r -t 1.625781260 -s 2 -d -1 -p CTS -e 38 -c 2 -a 0 -i 0 -k MAC
+ -t 1.625791260 -s 2 -d 3 -p ack -e 118 -c 2 -a 0 -i 10 -k MAC 
- -t 1.625791260 -s 2 -d 3 -p ack -e 118 -c 2 -a 0 -i 10 -k MAC
h -t 1.625791260 -s 2 -d 3 -p ack -e 118 -c 2 -a 0 -i 10 -k MAC
r -t 1.626735900 -s 3 -d 3 -p ack -e 60 -c 2 -a 0 -i 10 -k MAC
+ -t 1.626745900 -s 3 -d -1 -p ACK -e 38 -c 2 -a 0 -i 0 -k MAC 
- -t 1.626745900 -s 3 -d -1 -p ACK -e 38 -c 2 -a 0 -i 0 -k MAC
h -t 1.626745900 -s 3 -d -1 -p ACK -e 38 -c 2 -a 0 -i 0 -k MAC
r -t 1.626760900 -s 3 -d 3 -p ack -e 60 -c 2 -a 0 -i 10 -k AGT
+ -t 1.626760900 -s 3 -d -1 -p tcp -e 1540 -c 2 -a 0 -i 11 -k AGT 
- -t 1.626760900 -s 3 -d -1 -p tcp -e 1540 -c 2 -a 0 -i 11 -k AGT
h -t 1.626760900 -s 3 -d -1 -p tcp -e 1540 -c 2 -a 0 -i 11 -k AGT
+ -t 1.626760900 -s 3 -d 2 -p tcp -e 1560 -c 2 -a 0 -i 11 -k RTR 
- -t 1.626760900 -s 3 -d 2 -p tcp -e 1560 -c 2 -a 0 -i 11 -k RTR
h -t 1.626760900 -s 3 -d 2 -p tcp -e 1560 -c 2 -a 0 -i 11 -k RTR
+ -t 1.626760900 -s 3 -d -1 -p tcp -e 1540 -c 2 -a 0 -i 12 -k AGT 
- -t 1.626760900 -s 3 -d -1 -p tcp -e 1540 -c 2 -a 0 -i 12 -k AGT
h -t 1.626760900 -s 3 -d -1 -p tcp -e 1540 -c 2 -a 0 -i 12 -k AGT
+ -t 1.626760900 -s 3 -d 2 -p tcp -e 1560 -c 2 -a 0 -i 12 -k RTR 
- -t 1.626760900 -s 3 -d 2 -p tcp -e 1560 -c 2 -a 0 -i 12 -k RTR
h -t 1.626760900 -s 3 -d 2 -p tcp -e 1560 -c 2 -a 0 -i 12 -k RTR
r -t 1.627050540 -s 2 -d -1 -p ACK -e 38 -c 2 -a 0 -i 0 -k MAC
+ -t 1.627359900 -s 3 -d -1 -p RTS -e 44 -c 2 -a 0 -i 0 -k MAC 
- -t 1.627359900 -s 3 -d -1 -p RTS -e 44 -c 2 -a 0 -i 0 -k MAC
h -t 1.627359900 -s 3 -d -1 -p RTS -e 44 -c 2 -a 0 -i 0 -k MAC
r -t 1.627712540 -s 2 -d -1 -p RTS -e 44 -c 2 -a 0 -i 0 -k MAC
+ -t 1.627722540 -s 2 -d -1 -p CTS -e 38 -c 2 -a 0 -i 0 -k MAC 
- -t 1.627722540 -s 2 -d -1 -p CTS -e 38 -c 2 -a 0 -i 0 -k MAC
h -t 1.627722540 -s 2 -d -1 -p CTS -e 38 -c 2 -a 0 -i 0 -k MAC
r -t 1.628027180 -s 3 -d -1 -p CTS -e 38 -c 2 -a 0 -i 0 -k MAC
+ -t 1.628037180 -s 3 -d 2 -p tcp -e 1618 -c 2 -a 0 -i 9 -k MAC 
- -t 1.628037180 -s 3 -d 2 -p tcp -e 1618 -c 2 -a 0 -i 9 -k MAC
h -t 1.628037180 -s 3 -d 2 -p tcp -e 1618 -c 2 -a 0 -i 9 -k MAC
r -t 1.640981820 -s 2 -d 2 -p tcp -e 1560 -c 2 -a 0 -i 9 -k MAC
+ -t 1.640991820 -s 2 -d -1 -p ACK -e 38 -c 2 -a 0 -i 0 -k MAC 
- -t 1.640991820 -s 2 -d -1 -p ACK -e 38 -c 2 -a 0 -i 0 -k MAC
h -t 1.640991820 -s 2 -d -1 -p ACK -e 38 -c 2 -a 0 -i 0 -k MAC
r -t 1.641006820 -s 2 -d 2 -p tcp -e 1560 -c 2 -a 0 -i 9 -k AGT
+ -t 1.641006820 -s 2 -d -1 -p ack -e 40 -c 2 -a 0 -i 13 -k AGT 
- -t 1.641006820 -s 2 -d -1 -p ack -e 40 -c 2 -a 0 -i 13 -k AGT
h -t 1.641006820 -s 2 -d -1 -p ack -e 40 -c 2 -a 0 -i 13 -k AGT
+ -t 1.641006820 -s 2 -d 3 -p ack -e 60 -c 2 -a 0 -i 13 -k RTR 
- -t 1.641006820 -s 2 -d 3 -p ack -e 60 -c 2 -a 0 -i 13 -k RTR
h -t 1.641006820 -s 2 -d 3 -p ack -e 60 -c 2 -a 0 -i 13 -k RTR
r -t 1.641296461 -s 3 -d -1 -p ACK -e 38 -c 2 -a 0 -i 0 -k MAC
+ -t 1.641385820 -s 2 -d -1 -p RTS -e 44 -c 2 -a 0 -i 0 -k MAC 
- -t 1.641385820 -s 2 -d -1 -p RTS -e 44 -c 2 -a 0 -i 0 -k MAC
h -t 1.641385820 -s 2 -d -1 -p RTS -e 44 -c 2 -a 0 -i 0 -k MAC
r -t 1.641738461 -s 3 -d -1 -p RTS -e 44 -c 2 -a 0 -i 0 -k MAC
+ -t 1.641748461 -s 3 -d -1 -p CTS -e 38 -c 2 -a 0 -i 0 -k MAC 
- -t 1.641748461 -s 3 -d -1 -p CTS -e 38 -c 2 -a 0 -i 0 -k MAC
h -t 1.641748461 -s 3 -d -1 -p CTS -e 38 -c 2 -a 0 -i 0 -k MAC
r -t 1.642053101 -s 2 -d -1 -p CTS -e 38 -c 2 -a 0 -i 0 -k MAC
+ -t 1.642063101 -s 2 -d 3 -p ack -e 118 -c 2 -a 0 -i 13 -k MAC 
- -t 1.642063101 -s 2 -d 3 -p ack -e 118 -c 2 -a 0 -i 13 -k MAC
h -t 1.642063101 -s 2 -d 3 -p ack -e 118 -c 2 -a 0 -i 13 -k MAC
r -t 1.643007741 -s 3 -d 3 -p ack -e 60 -c 2 -a 0 -i 13 -k MAC
+ -t 1.643017741 -s 3 -d -1 -p ACK -e 38 -c 2 -a 0 -i 0 -k MAC 
- -t 1.643017741 -s 3 -d -1 -p ACK -e 38 -c 2 -a 0 -i 0 -k MAC
h -t 1.643017741 -s 3 -d -1 -p ACK -e 38 -c 2 -a 0 -i 0 -k MAC
r -t 1.643032741 -s 3 -d 3 -p ack -e 60 -c 2 -a 0 -i 13 -k AGT
+ -t 1.643032741 -s 3 -d -1 -p tcp -e 1540 -c 2 -a 0 -i 14 -k AGT 
- -t 1.643032741 -s 3 -d -1 -p tcp -e 1540 -c 2 -a 0 -i 14 -k AGT
h -t 1.643032741 -s 3 -d -1 -p tcp -e 1540 -c 2 -a 0 -i 14 -k AGT
+ -t 1.643032741 -s 3 -d 2 -p tcp -e 1560 -c 2 -a 0 -i 14 -k RTR 
- -t 1.643032741 -s 3 -d 2 -p tcp -e 1560 -c 2 -a 0 -i 14 -k RTR
h -t 1.643032741 -s 3 -d 2 -p tcp -e 1560 -c 2 -a 0 -i 14 -k RTR
+ -t 1.643032741 -s 3 -d -1 -p tcp -e 1540 -c 2 -a 0 -i 15 -k AGT 
- -t 1.643032741 -s 3 -d -1 -p tcp -e 1540 -c 2 -a 0 -i 15 -k AGT
h -t 1.643032741 -s 3 -d -1 -p tcp -e 1540 -c 2 -a 0 -i 15 -k AGT
+ -t 1.643032741 -s 3 -d 2 -p tcp -e 1560 -c 2 -a 0 -i 15 -k RTR 
- -t 1.643032741 -s 3 -d 2 -p tcp -e 1560 -c 2 -a 0 -i 15 -k RTR
h -t 1.643032741 -s 3 -d 2 -p tcp -e 1560 -c 2 -a 0 -i 15 -k RTR
r -t 1.643322381 -s 2 -d -1 -p ACK -e 38 -c 2 -a 0 -i 0 -k MAC
+ -t 1.643551741 -s 3 -d -1 -p RTS -e 44 -c 2 -a 0 -i 0 -k MAC 
- -t 1.643551741 -s 3 -d -1 -p RTS -e 44 -c 2 -a 0 -i 0 -k MAC
h -t 1.643551741 -s 3 -d -1 -p RTS -e 44 -c 2 -a 0 -i 0 -k MAC
r -t 1.643904381 -s 2 -d -1 -p RTS -e 44 -c 2 -a 0 -i 0 -k MAC
+ -t 1.643914381 -s 2 -d -1 -p CTS -e 38 -c 2 -a 0 -i 0 -k MAC 
- -t 1.643914381 -s 2 -d -1 -p CTS -e 38 -c 2 -a 0 -i 0 -k MAC
h -t 1.643914381 -s 2 -d -1 -p CTS -e 38 -c 2 -a 0 -i 0 -k MAC
r -t 1.644219022 -s 3 -d -1 -p CTS -e 38 -c 2 -a 0 -i 0 -k MAC
+ -t 1.644229022 -s 3 -d 2 -p tcp -e 1618 -c 2 -a 0 -i 11 -k MAC 
- -t 1.644229022 -s 3 -d 2 -p tcp -e 1618 -c 2 -a 0 -i 11 -k MAC
h -t 1.644229022 -s 3 -d 2 -p tcp -e 1618 -c 2 -a 0 -i 11 -k MAC
r -t 1.657173662 -s 2 -d 2 -p tcp -e 1560 -c 2 -a 0 -i 11 -k MAC
+ -t 1.657183662 -s 2 -d -1 -p ACK -e 38 -c 2 -a 0 -i 0 -k MAC 
- -t 1.657183662 -s 2 -d -1 -p ACK -e 38 -c 2 -a 0 -i 0 -k MAC
h -t 1.657183662 -s 2 -d -1 -p ACK -e 38 -c 2 -a 0 -i 0 -k MAC
r -t 1.657198662 -s 2 -d 2 -p tcp -e 1560 -c 2 -a 0 -i 11 -k AGT
+ -t 1.657198662 -s 2 -d -1 -p ack -e 40 -c 2 -a 0 -i 16 -k AGT 
- -t 1.657198662 -s 2 -d -1 -p ack -e 40 -c 2 -a 0 -i 16 -k AGT
h -t 1.657198662 -s 2 -d -1 -p ack -e 40 -c 2 -a 0 -i 16 -k AGT
+ -t 1.657198662 -s 2 -d 3 -p ack -e 60 -c 2 -a 0 -i 16 -k RTR 
- -t 1.657198662 -s 2 -d 3 -p ack -e 60 -c 2 -a 0 -i 16 -k RTR
h -t 1.657198662 -s 2 -d 3 -p ack -e 60 -c 2 -a 0 -i 16 -k RTR
r -t 1.657488302 -s 3 -d -1 -p ACK -e 38 -c 2 -a 0 -i 0 -k MAC
+ -t 1.657628092 -s 0 -d -1 -p ARP -e 86 -c 2 -a 0 -i 0 -k MAC 
- -t 1.657628092 -s 0 -d -1 -p ARP -e 86 -c 2 -a 0 -i 0 -k MAC
h -t 1.657628092 -s 0 -d -1 -p ARP -e 86 -c 2 -a 0 -i 0 -k MAC
r -t 1.658316831 -s 2 -d -1 -p ARP -e 28 -c 2 -a 0 -i 0 -k MAC
+ -t 1.658751436 -s 1 -d -1 -p RTS -e 44 -c 2 -a 0 -i 0 -k MAC 
- -t 1.658751436 -s 1 -d -1 -p RTS -e 44 -c 2 -a 0 -i 0 -k MAC
h -t 1.658751436 -s 1 -d -1 -p RTS -e 44 -c 2 -a 0 -i 0 -k MAC
r -t 1.659104095 -s 2 -d -1 -p RTS -e 44 -c 2 -a 0 -i 0 -k MAC
+ -t 1.659114095 -s 2 -d -1 -p CTS -e 38 -c 2 -a 0 -i 0 -k MAC 
- -t 1.659114095 -s 2 -d -1 -p CTS -e 38 -c 2 -a 0 -i 0 -k MAC
h -t 1.659114095 -s 2 -d -1 -p CTS -e 38 -c 2 -a 0 -i 0 -k MAC
r -t 1.659418754 -s 1 -d -1 -p CTS -e 38 -c 2 -a 0 -i 0 -k MAC
+ -t 1.659428754 -s 1 -d 2 -p tcp -e 138 -c 2 -a 0 -i 5 -k MAC 
- -t 1.659428754 -s 1 -d 2 -p tcp -e 138 -c 2 -a 0 -i 5 -k MAC
h -t 1.659428754 -s 1 -d 2 -p tcp -e 138 -c 2 -a 0 -i 5 -k MAC
r -t 1.660533412 -s 2 -d 2 -p tcp -e 80 -c 2 -a 0 -i 5 -k MAC
+ -t 1.660543412 -s 2 -d -1 -p ACK -e 38 -c 2 -a 0 -i 0 -k MAC 
- -t 1.660543412 -s 2 -d -1 -p ACK -e 38 -c 2 -a 0 -i 0 -k MAC
h -t 1.660543412 -s 2 -d -1 -p ACK -e 38 -c 2 -a 0 -i 0 -k MAC
r -t 1.660558412 -s 2 -d 2 -p tcp -e 80 -c 2 -a 0 -i 5 -k AGT
+ -t 1.660558412 -s 2 -d -1 -p ack -e 40 -c 2 -a 0 -i 17 -k AGT 
- -t 1.660558412 -s 2 -d -1 -p ack -e 40 -c 2 -a 0 -i 17 -k AGT
h -t 1.660558412 -s 2 -d -1 -p ack -e 40 -c 2 -a 0 -i 17 -k AGT
+ -t 1.660558412 -s 2 -d 1 -p ack -e 60 -c 2 -a 0 -i 17 -k RTR 
- -t 1.660558412 -s 2 -d 1 -p ack -e 60 -c 2 -a 0 -i 17 -k RTR
h -t 1.660558412 -s 2 -d 1 -p ack -e 60 -c 2 -a 0 -i 17 -k RTR
r -t 1.660848071 -s 1 -d -1 -p ACK -e 38 -c 2 -a 0 -i 0 -k MAC
+ -t 1.660957412 -s 2 -d -1 -p RTS -e 44 -c 2 -a 0 -i 0 -k MAC 
- -t 1.660957412 -s 2 -d -1 -p RTS -e 44 -c 2 -a 0 -i 0 -k MAC
h -t 1.660957412 -s 2 -d -1 -p RTS -e 44 -c 2 -a 0 -i 0 -k MAC
r -t 1.661310053 -s 3 -d -1 -p RTS -e 44 -c 2 -a 0 -i 0 -k MAC
+ -t 1.661320053 -s 3 -d -1 -p CTS -e 38 -c 2 -a 0 -i 0 -k MAC 
- -t 1.661320053 -s 3 -d -1 -p CTS -e 38 -c 2 -a 0 -i 0 -k MAC
h -t 1.661320053 -s 3 -d -1 -p CTS -e 38 -c 2 -a 0 -i 0 -k MAC
r -t 1.661624693 -s 2 -d -1 -p CTS -e 38 -c 2 -a 0 -i 0 -k MAC
+ -t 1.661634693 -s 2 -d 3 -p ack -e 118 -c 2 -a 0 -i 16 -k MAC 
- -t 1.661634693 -s 2 -d 3 -p ack -e 118 -c 2 -a 0 -i 16 -k MAC
h -t 1.661634693 -s 2 -d 3 -p ack -e 118 -c 2 -a 0 -i 16 -k MAC
r -t 1.662579333 -s 3 -d 3 -p ack -e 60 -c 2 -a 0 -i 16 -k MAC
+ -t 1.662589333 -s 3 -d -1 -p ACK -e 38 -c 2 -a 0 -i 0 -k MAC 
- -t 1.662589333 -s 3 -d -1 -p ACK -e 38 -c 2 -a 0 -i 0 -k MAC
h -t 1.662589333 -s 3 -d -1 -p ACK -e 38 -c 2 -a 0 -i 0 -k MAC
r -t 1.662604333 -s 3 -d 3 -p ack -e 60 -c 2 -a 0 -i 16 -k AGT
+ -t 1.662604333 -s 3 -d -1 -p tcp -e 1540 -c 2 -a 0 -i 18 -k AGT 
- -t 1.662604333 -s 3 -d -1 -p tcp -e 1540 -c 2 -a 0 -i 18 -k AGT
h -t 1.662604333 -s 3 -d -1 -p tcp -e 1540 -c 2 -a 0 -i 18 -k AGT
+ -t 1.662604333 -s 3 -d 2 -p tcp -e 1560 -c 2 -a 0 -i 18 -k RTR 
- -t 1.662604333 -s 3 -d 2 -p tcp -e 1560 -c 2 -a 0 -i 18 -k RTR
h -t 1.662604333 -s 3 -d 2 -p tcp -e 1560 -c 2 -a 0 -i 18 -k RTR
+ -t 1.662604333 -s 3 -d -1 -p tcp -e 1540 -c 2 -a 0 -i 19 -k AGT 
- -t 1.662604333 -s 3 -d -1 -p tcp -e 1540 -c 2 -a 0 -i 19 -k AGT
h -t 1.662604333 -s 3 -d -1 -p tcp -e 1540 -c 2 -a 0 -i 19 -k AGT
+ -t 1.662604333 -s 3 -d 2 -p tcp -e 1560 -c 2 -a 0 -i 19 -k RTR 
- -t 1.662604333 -s 3 -d 2 -p tcp -e 1560 -c 2 -a 0 -i 19 -k RTR
h -t 1.662604333 -s 3 -d 2 -p tcp -e 1560 -c 2 -a 0 -i 19 -k RTR
r -t 1.662893973 -s 2 -d -1 -p ACK -e 38 -c 2 -a 0 -i 0 -k MAC
+ -t 1.663003973 -s 2 -d -1 -p RTS -e 44 -c 2 -a 0 -i 0 -k MAC 
- -t 1.663003973 -s 2 -d -1 -p RTS -e 44 -c 2 -a 0 -i 0 -k MAC
h -t 1.663003973 -s 2 -d -1 -p RTS -e 44 -c 2 -a 0 -i 0 -k MAC
r -t 1.663356712 -s 0 -d -1 -p RTS -e 44 -c 2 -a 0 -i 0 -k MAC
+ -t 1.663366712 -s 0 -d -1 -p CTS -e 38 -c 2 -a 0 -i 0 -k MAC 
- -t 1.663366712 -s 0 -d -1 -p CTS -e 38 -c 2 -a 0 -i 0 -k MAC
h -t 1.663366712 -s 0 -d -1 -p CTS -e 38 -c 2 -a 0 -i 0 -k MAC
r -t 1.663671451 -s 2 -d -1 -p CTS -e 38 -c 2 -a 0 -i 0 -k MAC
+ -t 1.663681451 -s 2 -d -1 -p ARP -e 86 -c 2 -a 0 -i 0 -k MAC 
- -t 1.663681451 -s 2 -d -1 -p ARP -e 86 -c 2 -a 0 -i 0 -k MAC
h -t 1.663681451 -s 2 -d -1 -p ARP -e 86 -c 2 -a 0 -i 0 -k MAC
r -t 1.664370190 -s 0 -d -1 -p ARP -e 28 -c 2 -a 0 -i 0 -k MAC
+ -t 1.664380190 -s 0 -d -1 -p ACK -e 38 -c 2 -a 0 -i 0 -k MAC 
- -t 1.664380190 -s 0 -d -1 -p ACK -e 38 -c 2 -a 0 -i 0 -k MAC
h -t 1.664380190 -s 0 -d -1 -p ACK -e 38 -c 2 -a 0 -i 0 -k MAC
r -t 1.664684929 -s 2 -d -1 -p ACK -e 38 -c 2 -a 0 -i 0 -k MAC
+ -t 1.664854190 -s 0 -d -1 -p RTS -e 44 -c 2 -a 0 -i 0 -k MAC 
- -t 1.664854190 -s 0 -d -1 -p RTS -e 44 -c 2 -a 0 -i 0 -k MAC
h -t 1.664854190 -s 0 -d -1 -p RTS -e 44 -c 2 -a 0 -i 0 -k MAC
r -t 1.665206929 -s 2 -d -1 -p RTS -e 44 -c 2 -a 0 -i 0 -k MAC
+ -t 1.665216929 -s 2 -d -1 -p CTS -e 38 -c 2 -a 0 -i 0 -k MAC 
- -t 1.665216929 -s 2 -d -1 -p CTS -e 38 -c 2 -a 0 -i 0 -k MAC
h -t 1.665216929 -s 2 -d -1 -p CTS -e 38 -c 2 -a 0 -i 0 -k MAC
r -t 1.665521668 -s 0 -d -1 -p CTS -e 38 -c 2 -a 0 -i 0 -k MAC
+ -t 1.665531668 -s 0 -d 2 -p tcp -e 138 -c 2 -a 0 -i 3 -k MAC 
- -t 1.665531668 -s 0 -d 2 -p tcp -e 138 -c 2 -a 0 -i 3 -k MAC
h -t 1.665531668 -s 0 -d 2 -p tcp -e 138 -c 2 -a 0 -i 3 -k MAC
r -t 1.666636408 -s 2 -d 2 -p tcp -e 80 -c 2 -a 0 -i 3 -k MAC
+ -t 1.666646408 -s 2 -d -1 -p ACK -e 38 -c 2 -a 0 -i 0 -k MAC 
- -t 1.666646408 -s 2 -d -1 -p ACK -e 38 -c 2 -a 0 -i 0 -k MAC
h -t 1.666646408 -s 2 -d -1 -p ACK -e 38 -c 2 -a 0 -i 0 -k MAC
r -t 1.666661408 -s 2 -d 2 -p tcp -e 80 -c 2 -a 0 -i 3 -k AGT
+ -t 1.666661408 -s 2 -d -1 -p ack -e 40 -c 2 -a 0 -i 20 -k AGT 
- -t 1.666661408 -s 2 -d -1 -p ack -e 40 -c 2 -a 0 -i 20 -k AGT
h -t 1.666661408 -s 2 -d -1 -p ack -e 40 -c 2 -a 0 -i 20 -k AGT
+ -t 1.666661408 -s 2 -d 0 -p ack -e 60 -c 2 -a 0 -i 20 -k RTR 
- -t 1.666661408 -s 2 -d 0 -p ack -e 60 -c 2 -a 0 -i 20 -k RTR
h -t 1.666661408 -s 2 -d 0 -p ack -e 60 -c 2 -a 0 -i 20 -k RTR
r -t 1.666951147 -s 0 -d -1 -p ACK -e 38 -c 2 -a 0 -i 0 -k MAC
+ -t 1.667110739 -s 3 -d -1 -p RTS -e 44 -c 2 -a 0 -i 0 -k MAC 
- -t 1.667110739 -s 3 -d -1 -p RTS -e 44 -c 2 -a 0 -i 0 -k MAC
h -t 1.667110739 -s 3 -d -1 -p RTS -e 44 -c 2 -a 0 -i 0 -k MAC
r -t 1.667463379 -s 2 -d -1 -p RTS -e 44 -c 2 -a 0 -i 0 -k MAC
+ -t 1.667473379 -s 2 -d -1 -p CTS -e 38 -c 2 -a 0 -i 0 -k MAC 
- -t 1.667473379 -s 2 -d -1 -p CTS -e 38 -c 2 -a 0 -i 0 -k MAC
h -t 1.667473379 -s 2 -d -1 -p CTS -e 38 -c 2 -a 0 -i 0 -k MAC
r -t 1.667778019 -s 3 -d -1 -p CTS -e 38 -c 2 -a 0 -i 0 -k MAC
+ -t 1.667788019 -s 3 -d 2 -p tcp -e 1618 -c 2 -a 0 -i 12 -k MAC 
- -t 1.667788019 -s 3 -d 2 -p tcp -e 1618 -c 2 -a 0 -i 12 -k MAC
h -t 1.667788019 -s 3 -d 2 -p tcp -e 1618 -c 2 -a 0 -i 12 -k MAC
r -t 1.680732659 -s 2 -d 2 -p tcp -e 1560 -c 2 -a 0 -i 12 -k MAC
+ -t 1.680742659 -s 2 -d -1 -p ACK -e 38 -c 2 -a 0 -i 0 -k MAC 
- -t 1.680742659 -s 2 -d -1 -p ACK -e 38 -c 2 -a 0 -i 0 -k MAC
h -t 1.680742659 -s 2 -d -1 -p ACK -e 38 -c 2 -a 0 -i 0 -k MAC
r -t 1.680757659 -s 2 -d 2 -p tcp -e 1560 -c 2 -a 0 -i 12 -k AGT
+ -t 1.680757659 -s 2 -d -1 -p ack -e 40 -c 2 -a 0 -i 21 -k AGT 
- -t 1.680757659 -s 2 -d -1 -p ack -e 40 -c 2 -a 0 -i 21 -k AGT
h -t 1.680757659 -s 2 -d -1 -p ack -e 40 -c 2 -a 0 -i 21 -k AGT
+ -t 1.680757659 -s 2 -d 3 -p ack -e 60 -c 2 -a 0 -i 21 -k RTR 
- -t 1.680757659 -s 2 -d 3 -p ack -e 60 -c 2 -a 0 -i 21 -k RTR
h -t 1.680757659 -s 2 -d 3 -p ack -e 60 -c 2 -a 0 -i 21 -k RTR
r -t 1.681047300 -s 3 -d -1 -p ACK -e 38 -c 2 -a 0 -i 0 -k MAC
+ -t 1.681236659 -s 2 -d -1 -p RTS -e 44 -c 2 -a 0 -i 0 -k MAC 
- -t 1.681236659 -s 2 -d -1 -p RTS -e 44 -c 2 -a 0 -i 0 -k MAC
h -t 1.681236659 -s 2 -d -1 -p RTS -e 44 -c 2 -a 0 -i 0 -k MAC
r -t 1.681589318 -s 1 -d -1 -p RTS -e 44 -c 2 -a 0 -i 0 -k MAC
+ -t 1.681599318 -s 1 -d -1 -p CTS -e 38 -c 2 -a 0 -i 0 -k MAC 
- -t 1.681599318 -s 1 -d -1 -p CTS -e 38 -c 2 -a 0 -i 0 -k MAC
h -t 1.681599318 -s 1 -d -1 -p CTS -e 38 -c 2 -a 0 -i 0 -k MAC
r -t 1.681903977 -s 2 -d -1 -p CTS -e 38 -c 2 -a 0 -i 0 -k MAC
+ -t 1.681913977 -s 2 -d 1 -p ack -e 118 -c 2 -a 0 -i 17 -k MAC 
- -t 1.681913977 -s 2 -d 1 -p ack -e 118 -c 2 -a 0 -i 17 -k MAC
h -t 1.681913977 -s 2 -d 1 -p ack -e 118 -c 2 -a 0 -i 17 -k MAC
r -t 1.682858636 -s 1 -d 1 -p ack -e 60 -c 2 -a 0 -i 17 -k MAC
+ -t 1.682868636 -s 1 -d -1 -p ACK -e 38 -c 2 -a 0 -i 0 -k MAC 
- -t 1.682868636 -s 1 -d -1 -p ACK -e 38 -c 2 -a 0 -i 0 -k MAC
h -t 1.682868636 -s 1 -d -1 -p ACK -e 38 -c 2 -a 0 -i 0 -k MAC
r -t 1.682883636 -s 1 -d 1 -p ack -e 60 -c 2 -a 0 -i 17 -k AGT
+ -t 1.682883636 -s 1 -d -1 -p tcp -e 1540 -c 2 -a 0 -i 22 -k AGT 
- -t 1.682883636 -s 1 -d -1 -p tcp -e 1540 -c 2 -a 0 -i 22 -k AGT
h -t 1.682883636 -s 1 -d -1 -p tcp -e 1540 -c 2 -a 0 -i 22 -k AGT
+ -t 1.682883636 -s 1 -d 2 -p tcp -e 1560 -c 2 -a 0 -i 22 -k RTR 
- -t 1.682883636 -s 1 -d 2 -p tcp -e 1560 -c 2 -a 0 -i 22 -k RTR
h -t 1.682883636 -s 1 -d 2 -p tcp -e 1560 -c 2 -a 0 -i 22 -k RTR
+ -t 1.682883636 -s 1 -d -1 -p tcp -e 1540 -c 2 -a 0 -i 23 -k AGT 
- -t 1.682883636 -s 1 -d -1 -p tcp -e 1540 -c 2 -a 0 -i 23 -k AGT
h -t 1.682883636 -s 1 -d -1 -p tcp -e 1540 -c 2 -a 0 -i 23 -k AGT
+ -t 1.682883636 -s 1 -d 2 -p tcp -e 1560 -c 2 -a 0 -i 23 -k RTR 
- -t 1.682883636 -s 1 -d 2 -p tcp -e 1560 -c 2 -a 0 -i 23 -k RTR
h -t 1.682883636 -s 1 -d 2 -p tcp -e 1560 -c 2 -a 0 -i 23 -k RTR
r -t 1.683173295 -s 2 -d -1 -p ACK -e 38 -c 2 -a 0 -i 0 -k MAC
+ -t 1.683403295 -s 2 -d -1 -p RTS -e 44 -c 2 -a 0 -i 0 -k MAC 
- -t 1.683403295 -s 2 -d -1 -p RTS -e 44 -c 2 -a 0 -i 0 -k MAC
h -t 1.683403295 -s 2 -d -1 -p RTS -e 44 -c 2 -a 0 -i 0 -k MAC
r -t 1.683756034 -s 0 -d -1 -p RTS -e 44 -c 2 -a 0 -i 0 -k MAC
+ -t 1.683766034 -s 0 -d -1 -p CTS -e 38 -c 2 -a 0 -i 0 -k MAC 
- -t 1.683766034 -s 0 -d -1 -p CTS -e 38 -c 2 -a 0 -i 0 -k MAC
h -t 1.683766034 -s 0 -d -1 -p CTS -e 38 -c 2 -a 0 -i 0 -k MAC
r -t 1.684070773 -s 2 -d -1 -p CTS -e 38 -c 2 -a 0 -i 0 -k MAC
+ -t 1.684080773 -s 2 -d 0 -p ack -e 118 -c 2 -a 0 -i 20 -k MAC 
- -t 1.684080773 -s 2 -d 0 -p ack -e 118 -c 2 -a 0 -i 20 -k MAC
h -t 1.684080773 -s 2 -d 0 -p ack -e 118 -c 2 -a 0 -i 20 -k MAC
r -t 1.685025512 -s 0 -d 0 -p ack -e 60 -c 2 -a 0 -i 20 -k MAC
+ -t 1.685035512 -s 0 -d -1 -p ACK -e 38 -c 2 -a 0 -i 0 -k MAC 
- -t 1.685035512 -s 0 -d -1 -p ACK -e 38 -c 2 -a 0 -i 0 -k MAC
h -t 1.685035512 -s 0 -d -1 -p ACK -e 38 -c 2 -a 0 -i 0 -k MAC
r -t 1.685050512 -s 0 -d 0 -p ack -e 60 -c 2 -a 0 -i 20 -k AGT
+ -t 1.685050512 -s 0 -d -1 -p tcp -e 1540 -c 2 -a 0 -i 24 -k AGT 
- -t 1.685050512 -s 0 -d -1 -p tcp -e 1540 -c 2 -a 0 -i 24 -k AGT
h -t 1.685050512 -s 0 -d -1 -p tcp -e 1540 -c 2 -a 0 -i 24 -k AGT
+ -t 1.685050512 -s 0 -d 2 -p tcp -e 1560 -c 2 -a 0 -i 24 -k RTR 
- -t 1.685050512 -s 0 -d 2 -p tcp -e 1560 -c 2 -a 0 -i 24 -k RTR
h -t 1.685050512 -s 0 -d 2 -p tcp -e 1560 -c 2 -a 0 -i 24 -k RTR
+ -t 1.685050512 -s 0 -d -1 -p tcp -e 1540 -c 2 -a 0 -i 25 -k AGT 
- -t 1.685050512 -s 0 -d -1 -p tcp -e 1540 -c 2 -a 0 -i 25 -k AGT
h -t 1.685050512 -s 0 -d -1 -p tcp -e 1540 -c 2 -a 0 -i 25 -k AGT
+ -t 1.685050512 -s 0 -d 2 -p tcp -e 1560 -c 2 -a 0 -i 25 -k RTR 
- -t 1.685050512 -s 0 -d 2 -p tcp -e 1560 -c 2 -a 0 -i 25 -k RTR
h -t 1.685050512 -s 0 -d 2 -p tcp -e 1560 -c 2 -a 0 -i 25 -k RTR
r -t 1.685340251 -s 2 -d -1 -p ACK -e 38 -c 2 -a 0 -i 0 -k MAC
+ -t 1.685670251 -s 2 -d -1 -p RTS -e 44 -c 2 -a 0 -i 0 -k MAC 
- -t 1.685670251 -s 2 -d -1 -p RTS -e 44 -c 2 -a 0 -i 0 -k MAC
h -t 1.685670251 -s 2 -d -1 -p RTS -e 44 -c 2 -a 0 -i 0 -k MAC
r -t 1.686022891 -s 3 -d -1 -p RTS -e 44 -c 2 -a 0 -i 0 -k MAC
+ -t 1.686032891 -s 3 -d -1 -p CTS -e 38 -c 2 -a 0 -i 0 -k MAC 
- -t 1.686032891 -s 3 -d -1 -p CTS -e 38 -c 2 -a 0 -i 0 -k MAC
h -t 1.686032891 -s 3 -d -1 -p CTS -e 38 -c 2 -a 0 -i 0 -k MAC
r -t 1.686337531 -s 2 -d -1 -p CTS -e 38 -c 2 -a 0 -i 0 -k MAC
+ -t 1.686347531 -s 2 -d 3 -p ack -e 118 -c 2 -a 0 -i 21 -k MAC 
- -t 1.686347531 -s 2 -d 3 -p ack -e 118 -c 2 -a 0 -i 21 -k MAC
h -t 1.686347531 -s 2 -d 3 -p ack -e 118 -c 2 -a 0 -i 21 -k MAC
r -t 1.687292171 -s 3 -d 3 -p ack -e 60 -c 2 -a 0 -i 21 -k MAC
+ -t 1.687302171 -s 3 -d -1 -p ACK -e 38 -c 2 -a 0 -i 0 -k MAC 
- -t 1.687302171 -s 3 -d -1 -p ACK -e 38 -c 2 -a 0 -i 0 -k MAC