s 0.184410103 _0_ RTR  --- 0 message 32 [0 0 0 0] ------- [0:255 -1:255 32 0] 
s 0.184845103 _0_ MAC  --- 0 message 90 [0 ffffffff 0 800] ------- [0:255 -1:255 32 0] 
r 0.185565842 _2_ MAC  --- 0 message 32 [0 ffffffff 0 800] ------- [0:255 -1:255 32 0] 
r 0.185590842 _2_ RTR  --- 0 message 32 [0 ffffffff 0 800] ------- [0:255 -1:255 32 0] 
s 0.634286779 _3_ RTR  --- 1 message 32 [0 0 0 0] ------- [3:255 -1:255 32 0] 
s 0.634901779 _3_ MAC  --- 1 message 90 [0 ffffffff 3 800] ------- [3:255 -1:255 32 0] 
r 0.635622419 _2_ MAC  --- 1 message 32 [0 ffffffff 3 800] ------- [3:255 -1:255 32 0] 
r 0.635647419 _2_ RTR  --- 1 message 32 [0 ffffffff 3 800] ------- [3:255 -1:255 32 0] 
s 0.883484847 _1_ RTR  --- 2 message 32 [0 0 0 0] ------- [1:255 -1:255 32 0] 
s 0.883719847 _1_ MAC  --- 2 message 90 [0 ffffffff 1 800] ------- [1:255 -1:255 32 0] 
r 0.884440505 _2_ MAC  --- 2 message 32 [0 ffffffff 1 800] ------- [1:255 -1:255 32 0] 
r 0.884465505 _2_ RTR  --- 2 message 32 [0 ffffffff 1 800] ------- [1:255 -1:255 32 0] 
s 1.000000000 _0_ AGT  --- 3 tcp 40 [0 0 0 0] ------- [0:0 2:0 32 0] [0 0] 0 0
r 1.000000000 _0_ RTR  --- 3 tcp 40 [0 0 0 0] ------- [0:0 2:0 32 0] [0 0] 0 0
s 1.000000000 _3_ AGT  --- 4 tcp 40 [0 0 0 0] ------- [3:0 2:1 32 0] [0 0] 0 0
r 1.000000000 _3_ RTR  --- 4 tcp 40 [0 0 0 0] ------- [3:0 2:1 32 0] [0 0] 0 0
s 1.000000000 _1_ AGT  --- 5 tcp 40 [0 0 0 0] ------- [1:0 2:2 32 0] [0 0] 0 0
r 1.000000000 _1_ RTR  --- 5 tcp 40 [0 0 0 0] ------- [1:0 2:2 32 0] [0 0] 0 0
s 1.599252296 _2_ RTR  --- 6 message 32 [0 0 0 0] ------- [2:255 -1:255 32 0] 
s 1.599527296 _2_ MAC  --- 6 message 90 [0 ffffffff 2 800] ------- [2:255 -1:255 32 0] 
r 1.600247936 _3_ MAC  --- 6 message 32 [0 ffffffff 2 800] ------- [2:255 -1:255 32 0] 
r 1.600247954 _1_ MAC  --- 6 message 32 [0 ffffffff 2 800] ------- [2:255 -1:255 32 0] 
r 1.600248035 _0_ MAC  --- 6 message 32 [0 ffffffff 2 800] ------- [2:255 -1:255 32 0] 
r 1.600272936 _3_ RTR  --- 6 message 32 [0 ffffffff 2 800] ------- [2:255 -1:255 32 0] 
s 1.600272936 _3_ RTR  --- 4 tcp 80 [0 0 0 0] ------- [3:0 2:1 32 2] [0 0] 0 0
r 1.600272954 _1_ RTR  --- 6 message 32 [0 ffffffff 2 800] ------- [2:255 -1:255 32 0] 
s 1.600272954 _1_ RTR  --- 5 tcp 80 [0 0 0 0] ------- [1:0 2:2 32 2] [0 0] 0 0
r 1.600273035 _0_ RTR  --- 6 message 32 [0 ffffffff 2 800] ------- [2:255 -1:255 32 0] 
s 1.600273035 _0_ RTR  --- 3 tcp 80 [0 0 0 0] ------- [0:0 2:0 32 2] [0 0] 0 0
s 1.600347936 _3_ MAC  --- 0 ARP 86 [0 ffffffff 3 806] ------- [REQUEST 3/3 0/2]
r 1.601036576 _2_ MAC  --- 0 ARP 28 [0 ffffffff 3 806] ------- [REQUEST 3/3 0/2]
s 1.601266576 _2_ MAC  --- 0 RTS 44 [52e 3 2 0] 
r 1.601619216 _3_ MAC  --- 0 RTS 44 [52e 3 2 0] 
s 1.601629216 _3_ MAC  --- 0 CTS 38 [3f4 2 0 0] 
r 1.601933856 _2_ MAC  --- 0 CTS 38 [3f4 2 0 0] 
s 1.601943856 _2_ MAC  --- 0 ARP 86 [13a 3 2 806] ------- [REPLY 2/2 3/3]
r 1.602632497 _3_ MAC  --- 0 ARP 28 [13a 3 2 806] ------- [REPLY 2/2 3/3]
s 1.602642497 _3_ MAC  --- 0 ACK 38 [0 2 0 0] 
r 1.602947137 _2_ MAC  --- 0 ACK 38 [0 2 0 0] 
s 1.603576497 _3_ MAC  --- 0 RTS 44 [6ce 2 3 0] 
r 1.603929137 _2_ MAC  --- 0 RTS 44 [6ce 2 3 0] 
s 1.603939137 _2_ MAC  --- 0 CTS 38 [594 3 0 0] 
r 1.604243777 _3_ MAC  --- 0 CTS 38 [594 3 0 0] 
s 1.604253777 _3_ MAC  --- 4 tcp 138 [13a 2 3 800] ------- [3:0 2:1 32 2] [0 0] 0 0
r 1.605358417 _2_ MAC  --- 4 tcp 80 [13a 2 3 800] ------- [3:0 2:1 32 2] [0 0] 1 0
s 1.605368417 _2_ MAC  --- 0 ACK 38 [0 3 0 0] 
r 1.605383417 _2_ AGT  --- 4 tcp 80 [13a 2 3 800] ------- [3:0 2:1 32 2] [0 0] 1 0
s 1.605383417 _2_ AGT  --- 7 ack 40 [0 0 0 0] ------- [2:1 3:0 32 0] [0 0] 0 0
r 1.605383417 _2_ RTR  --- 7 ack 40 [0 0 0 0] ------- [2:1 3:0 32 0] [0 0] 0 0
s 1.605383417 _2_ RTR  --- 7 ack 60 [0 0 0 0] ------- [2:1 3:0 32 3] [0 0] 0 0
r 1.605673058 _3_ MAC  --- 0 ACK 38 [0 3 0 0] 
s 1.605792844 _1_ MAC  --- 0 ARP 86 [0 ffffffff 1 806] ------- [REQUEST 1/1 0/2]
r 1.606481503 _2_ MAC  --- 0 ARP 28 [0 ffffffff 1 806] ------- [REQUEST 1/1 0/2]
s 1.607011503 _2_ MAC  --- 0 RTS 44 [62e 3 2 0] 
r 1.607364143 _3_ MAC  --- 0 RTS 44 [62e 3 2 0] 
s 1.607374143 _3_ MAC  --- 0 CTS 38 [4f4 2 0 0] 
r 1.607678783 _2_ MAC  --- 0 CTS 38 [4f4 2 0 0] 
s 1.607688783 _2_ MAC  --- 7 ack 118 [13a 3 2 800] ------- [2:1 3:0 32 3] [0 0] 0 0
r 1.608633423 _3_ MAC  --- 7 ack 60 [13a 3 2 800] ------- [2:1 3:0 32 3] [0 0] 1 0
s 1.608643423 _3_ MAC  --- 0 ACK 38 [0 2 0 0] 
r 1.608658423 _3_ AGT  --- 7 ack 60 [13a 3 2 800] ------- [2:1 3:0 32 3] [0 0] 1 0
s 1.608658423 _3_ AGT  --- 8 tcp 1540 [0 0 0 0] ------- [3:0 2:1 32 0] [1 0] 0 0
r 1.608658423 _3_ RTR  --- 8 tcp 1540 [0 0 0 0] ------- [3:0 2:1 32 0] [1 0] 0 0
s 1.608658423 _3_ RTR  --- 8 tcp 1560 [0 0 0 0] ------- [3:0 2:1 32 2] [1 0] 0 0
s 1.608658423 _3_ AGT  --- 9 tcp 1540 [0 0 0 0] ------- [3:0 2:1 32 0] [2 0] 0 0
r 1.608658423 _3_ RTR  --- 9 tcp 1540 [0 0 0 0] ------- [3:0 2:1 32 0] [2 0] 0 0
s 1.608658423 _3_ RTR  --- 9 tcp 1560 [0 0 0 0] ------- [3:0 2:1 32 2] [2 0] 0 0
r 1.608948063 _2_ MAC  --- 0 ACK 38 [0 2 0 0] 
s 1.609197423 _3_ MAC  --- 0 RTS 44 [350e 2 3 0] 
r 1.609550063 _2_ MAC  --- 0 RTS 44 [350e 2 3 0] 
s 1.609560063 _2_ MAC  --- 0 CTS 38 [33d4 3 0 0] 
r 1.609864704 _3_ MAC  --- 0 CTS 38 [33d4 3 0 0] 
s 1.609874704 _3_ MAC  --- 8 tcp 1618 [13a 2 3 800] ------- [3:0 2:1 32 2] [1 0] 0 0
r 1.622819344 _2_ MAC  --- 8 tcp 1560 [13a 2 3 800] ------- [3:0 2:1 32 2] [1 0] 1 0
s 1.622829344 _2_ MAC  --- 0 ACK 38 [0 3 0 0] 
r 1.622844344 _2_ AGT  --- 8 tcp 1560 [13a 2 3 800] ------- [3:0 2:1 32 2] [1 0] 1 0
s 1.622844344 _2_ AGT  --- 10 ack 40 [0 0 0 0] ------- [2:1 3:0 32 0] [1 0] 0 0
r 1.622844344 _2_ RTR  --- 10 ack 40 [0 0 0 0] ------- [2:1 3:0 32 0] [1 0] 0 0
s 1.622844344 _2_ RTR  --- 10 ack 60 [0 0 0 0] ------- [2:1 3:0 32 3] [1 0] 0 0
r 1.623133984 _3_ MAC  --- 0 ACK 38 [0 3 0 0] 
s 1.623303344 _2_ MAC  --- 0 RTS 44 [52e 1 2 0] 
r 1.623656003 _1_ MAC  --- 0 RTS 44 [52e 1 2 0] 
s 1.623666003 _1_ MAC  --- 0 CTS 38 [3f4 2 0 0] 
r 1.623970662 _2_ MAC  --- 0 CTS 38 [3f4 2 0 0] 
s 1.623980662 _2_ MAC  --- 0 ARP 86 [13a 1 2 806] ------- [REPLY 2/2 1/1]
r 1.624669320 _1_ MAC  --- 0 ARP 28 [13a 1 2 806] ------- [REPLY 2/2 1/1]
s 1.624679320 _1_ MAC  --- 0 ACK 38 [0 2 0 0] 
r 1.624983979 _2_ MAC  --- 0 ACK 38 [0 2 0 0] 
s 1.625113979 _2_ MAC  --- 0 RTS 44 [62e 3 2 0] 
r 1.625466619 _3_ MAC  --- 0 RTS 44 [62e 3 2 0] 
s 1.625476619 _3_ MAC  --- 0 CTS 38 [4f4 2 0 0] 
r 1.625781260 _2_ MAC  --- 0 CTS 38 [4f4 2 0 0] 
s 1.625791260 _2_ MAC  --- 10 ack 118 [13a 3 2 800] ------- [2:1 3:0 32 3] [1 0] 0 0
r 1.626735900 _3_ MAC  --- 10 ack 60 [13a 3 2 800] ------- [2:1 3:0 32 3] [1 0] 1 0
s 1.626745900 _3_ MAC  --- 0 ACK 38 [0 2 0 0] 
r 1.626760900 _3_ AGT  --- 10 ack 60 [13a 3 2 800] ------- [2:1 3:0 32 3] [1 0] 1 0
s 1.626760900 _3_ AGT  --- 11 tcp 1540 [0 0 0 0] ------- [3:0 2:1 32 0] [3 0] 0 0
r 1.626760900 _3_ RTR  --- 11 tcp 1540 [0 0 0 0] ------- [3:0 2:1 32 0] [3 0] 0 0
s 1.626760900 _3_ RTR  --- 11 tcp 1560 [0 0 0 0] ------- [3:0 2:1 32 2] [3 0] 0 0
s 1.626760900 _3_ AGT  --- 12 tcp 1540 [0 0 0 0] ------- [3:0 2:1 32 0] [4 0] 0 0
r 1.626760900 _3_ RTR  --- 12 tcp 1540 [0 0 0 0] ------- [3:0 2:1 32 0] [4 0] 0 0
s 1.626760900 _3_ RTR  --- 12 tcp 1560 [0 0 0 0] ------- [3:0 2:1 32 2] [4 0] 0 0
r 1.627050540 _2_ MAC  --- 0 ACK 38 [0 2 0 0] 
s 1.627359900 _3_ MAC  --- 0 RTS 44 [350e 2 3 0] 
r 1.627712540 _2_ MAC  --- 0 RTS 44 [350e 2 3 0] 
s 1.627722540 _2_ MAC  --- 0 CTS 38 [33d4 3 0 0] 
r 1.628027180 _3_ MAC  --- 0 CTS 38 [33d4 3 0 0] 
s 1.628037180 _3_ MAC  --- 9 tcp 1618 [13a 2 3 800] ------- [3:0 2:1 32 2] [2 0] 0 0
r 1.640981820 _2_ MAC  --- 9 tcp 1560 [13a 2 3 800] ------- [3:0 2:1 32 2] [2 0] 1 0
s 1.640991820 _2_ MAC  --- 0 ACK 38 [0 3 0 0] 
r 1.641006820 _2_ AGT  --- 9 tcp 1560 [13a 2 3 800] ------- [3:0 2:1 32 2] [2 0] 1 0
s 1.641006820 _2_ AGT  --- 13 ack 40 [0 0 0 0] ------- [2:1 3:0 32 0] [2 0] 0 0
r 1.641006820 _2_ RTR  --- 13 ack 40 [0 0 0 0] ------- [2:1 3:0 32 0] [2 0] 0 0
s 1.641006820 _2_ RTR  --- 13 ack 60 [0 0 0 0] ------- [2:1 3:0 32 3] [2 0] 0 0
r 1.641296461 _3_ MAC  --- 0 ACK 38 [0 3 0 0] 
s 1.641385820 _2_ MAC  --- 0 RTS 44 [62e 3 2 0] 
r 1.641738461 _3_ MAC  --- 0 RTS 44 [62e 3 2 0] 
s 1.641748461 _3_ MAC  --- 0 CTS 38 [4f4 2 0 0] 
r 1.642053101 _2_ MAC  --- 0 CTS 38 [4f4 2 0 0] 
s 1.642063101 _2_ MAC  --- 13 ack 118 [13a 3 2 800] ------- [2:1 3:0 32 3] [2 0] 0 0
r 1.643007741 _3_ MAC  --- 13 ack 60 [13a 3 2 800] ------- [2:1 3:0 32 3] [2 0] 1 0
s 1.643017741 _3_ MAC  --- 0 ACK 38 [0 2 0 0] 
r 1.643032741 _3_ AGT  --- 13 ack 60 [13a 3 2 800] ------- [2:1 3:0 32 3] [2 0] 1 0
s 1.643032741 _3_ AGT  --- 14 tcp 1540 [0 0 0 0] ------- [3:0 2:1 32 0] [5 0] 0 0
r 1.643032741 _3_ RTR  --- 14 tcp 1540 [0 0 0 0] ------- [3:0 2:1 32 0] [5 0] 0 0
s 1.643032741 _3_ RTR  --- 14 tcp 1560 [0 0 0 0] ------- [3:0 2:1 32 2] [5 0] 0 0
s 1.643032741 _3_ AGT  --- 15 tcp 1540 [0 0 0 0] ------- [3:0 2:1 32 0] [6 0] 0 0
r 1.643032741 _3_ RTR  --- 15 tcp 1540 [0 0 0 0] ------- [3:0 2:1 32 0] [6 0] 0 0
s 1.643032741 _3_ RTR  --- 15 tcp 1560 [0 0 0 0] ------- [3:0 2:1 32 2] [6 0] 0 0
r 1.643322381 _2_ MAC  --- 0 ACK 38 [0 2 0 0] 
s 1.643551741 _3_ MAC  --- 0 RTS 44 [350e 2 3 0] 
r 1.643904381 _2_ MAC  --- 0 RTS 44 [350e 2 3 0] 
s 1.643914381 _2_ MAC  --- 0 CTS 38 [33d4 3 0 0] 
r 1.644219022 _3_ MAC  --- 0 CTS 38 [33d4 3 0 0] 
s 1.644229022 _3_ MAC  --- 11 tcp 1618 [13a 2 3 800] ------- [3:0 2:1 32 2] [3 0] 0 0
r 1.657173662 _2_ MAC  --- 11 tcp 1560 [13a 2 3 800] ------- [3:0 2:1 32 2] [3 0] 1 0
s 1.657183662 _2_ MAC  --- 0 ACK 38 [0 3 0 0] 
r 1.657198662 _2_ AGT  --- 11 tcp 1560 [13a 2 3 800] ------- [3:0 2:1 32 2] [3 0] 1 0
s 1.657198662 _2_ AGT  --- 16 ack 40 [0 0 0 0] ------- [2:1 3:0 32 0] [3 0] 0 0
r 1.657198662 _2_ RTR  --- 16 ack 40 [0 0 0 0] ------- [2:1 3:0 32 0] [3 0] 0 0
s 1.657198662 _2_ RTR  --- 16 ack 60 [0 0 0 0] ------- [2:1 3:0 32 3] [3 0] 0 0
r 1.657488302 _3_ MAC  --- 0 ACK 38 [0 3 0 0] 
s 1.657628092 _0_ MAC  --- 0 ARP 86 [0 ffffffff 0 806] ------- [REQUEST 0/0 0/2]
r 1.658316831 _2_ MAC  --- 0 ARP 28 [0 ffffffff 0 806] ------- [REQUEST 0/0 0/2]
s 1.658751436 _1_ MAC  --- 0 RTS 44 [6ce 2 1 0] 
r 1.659104095 _2_ MAC  --- 0 RTS 44 [6ce 2 1 0] 
s 1.659114095 _2_ MAC  --- 0 CTS 38 [594 1 0 0] 
r 1.659418754 _1_ MAC  --- 0 CTS 38 [594 1 0 0] 
s 1.659428754 _1_ MAC  --- 5 tcp 138 [13a 2 1 800] ------- [1:0 2:2 32 2] [0 0] 0 0
r 1.660533412 _2_ MAC  --- 5 tcp 80 [13a 2 1 800] ------- [1:0 2:2 32 2] [0 0] 1 0
s 1.660543412 _2_ MAC  --- 0 ACK 38 [0 1 0 0] 
r 1.660558412 _2_ AGT  --- 5 tcp 80 [13a 2 1 800] ------- [1:0 2:2 32 2] [0 0] 1 0
s 1.660558412 _2_ AGT  --- 17 ack 40 [0 0 0 0] ------- [2:2 1:0 32 0] [0 0] 0 0
r 1.660558412 _2_ RTR  --- 17 ack 40 [0 0 0 0] ------- [2:2 1:0 32 0] [0 0] 0 0
s 1.660558412 _2_ RTR  --- 17 ack 60 [0 0 0 0] ------- [2:2 1:0 32 1] [0 0] 0 0
r 1.660848071 _1_ MAC  --- 0 ACK 38 [0 1 0 0] 
s 1.660957412 _2_ MAC  --- 0 RTS 44 [62e 3 2 0] 
r 1.661310053 _3_ MAC  --- 0 RTS 44 [62e 3 2 0] 
s 1.661320053 _3_ MAC  --- 0 CTS 38 [4f4 2 0 0] 
r 1.661624693 _2_ MAC  --- 0 CTS 38 [4f4 2 0 0] 
s 1.661634693 _2_ MAC  --- 16 ack 118 [13a 3 2 800] ------- [2:1 3:0 32 3] [3 0] 0 0
r 1.662579333 _3_ MAC  --- 16 ack 60 [13a 3 2 800] ------- [2:1 3:0 32 3] [3 0] 1 0
s 1.662589333 _3_ MAC  --- 0 ACK 38 [0 2 0 0] 
r 1.662604333 _3_ AGT  --- 16 ack 60 [13a 3 2 800] ------- [2:1 3:0 32 3] [3 0] 1 0
s 1.662604333 _3_ AGT  --- 18 tcp 1540 [0 0 0 0] ------- [3:0 2:1 32 0] [7 0] 0 0
r 1.662604333 _3_ RTR  --- 18 tcp 1540 [0 0 0 0] ------- [3:0 2:1 32 0] [7 0] 0 0
s 1.662604333 _3_ RTR  --- 18 tcp 1560 [0 0 0 0] ------- [3:0 2:1 32 2] [7 0] 0 0
s 1.662604333 _3_ AGT  --- 19 tcp 1540 [0 0 0 0] ------- [3:0 2:1 32 0] [8 0] 0 0
r 1.662604333 _3_ RTR  --- 19 tcp 1540 [0 0 0 0] ------- [3:0 2:1 32 0] [8 0] 0 0
s 1.662604333 _3_ RTR  --- 19 tcp 1560 [0 0 0 0] ------- [3:0 2:1 32 2] [8 0] 0 0
r 1.662893973 _2_ MAC  --- 0 ACK 38 [0 2 0 0] 
s 1.663003973 _2_ MAC  --- 0 RTS 44 [52e 0 2 0] 
r 1.663356712 _0_ MAC  --- 0 RTS 44 [52e 0 2 0] 
s 1.663366712 _0_ MAC  --- 0 CTS 38 [3f4 2 0 0] 
r 1.663671451 _2_ MAC  --- 0 CTS 38 [3f4 2 0 0] 
s 1.663681451 _2_ MAC  --- 0 ARP 86 [13a 0 2 806] ------- [REPLY 2/2 0/0]
r 1.664370190 _0_ MAC  --- 0 ARP 28 [13a 0 2 806] ------- [REPLY 2/2 0/0]
s 1.664380190 _0_ MAC  --- 0 ACK 38 [0 2 0 0] 
r 1.664684929 _2_ MAC  --- 0 ACK 38 [0 2 0 0] 
s 1.664854190 _0_ MAC  --- 0 RTS 44 [6ce 2 0 0] 
r 1.665206929 _2_ MAC  --- 0 RTS 44 [6ce 2 0 0] 
s 1.665216929 _2_ MAC  --- 0 CTS 38 [594 0 0 0] 
r 1.665521668 _0_ MAC  --- 0 CTS 38 [594 0 0 0] 
s 1.665531668 _0_ MAC  --- 3 tcp 138 [13a 2 0 800] ------- [0:0 2:0 32 2] [0 0] 0 0
r 1.666636408 _2_ MAC  --- 3 tcp 80 [13a 2 0 800] ------- [0:0 2:0 32 2] [0 0] 1 0
s 1.666646408 _2_ MAC  --- 0 ACK 38 [0 0 0 0] 
r 1.666661408 _2_ AGT  --- 3 tcp 80 [13a 2 0 800] ------- [0:0 2:0 32 2] [0 0] 1 0
s 1.666661408 _2_ AGT  --- 20 ack 40 [0 0 0 0] ------- [2:0 0:0 32 0] [0 0] 0 0
r 1.666661408 _2_ RTR  --- 20 ack 40 [0 0 0 0] ------- [2:0 0:0 32 0] [0 0] 0 0
s 1.666661408 _2_ RTR  --- 20 ack 60 [0 0 0 0] ------- [2:0 0:0 32 0] [0 0] 0 0
r 1.666951147 _0_ MAC  --- 0 ACK 38 [0 0 0 0] 
s 1.667110739 _3_ MAC  --- 0 RTS 44 [350e 2 3 0] 
r 1.667463379 _2_ MAC  --- 0 RTS 44 [350e 2 3 0] 
s 1.667473379 _2_ MAC  --- 0 CTS 38 [33d4 3 0 0] 
r 1.667778019 _3_ MAC  --- 0 CTS 38 [33d4 3 0 0] 
s 1.667788019 _3_ MAC  --- 12 tcp 1618 [13a 2 3 800] ------- [3:0 2:1 32 2] [4 0] 0 0
r 1.680732659 _2_ MAC  --- 12 tcp 1560 [13a 2 3 800] ------- [3:0 2:1 32 2] [4 0] 1 0
s 1.680742659 _2_ MAC  --- 0 ACK 38 [0 3 0 0] 
r 1.680757659 _2_ AGT  --- 12 tcp 1560 [13a 2 3 800] ------- [3:0 2:1 32 2] [4 0] 1 0
s 1.680757659 _2_ AGT  --- 21 ack 40 [0 0 0 0] ------- [2:1 3:0 32 0] [4 0] 0 0
r 1.680757659 _2_ RTR  --- 21 ack 40 [0 0 0 0] ------- [2:1 3:0 32 0] [4 0] 0 0
s 1.680757659 _2_ RTR  --- 21 ack 60 [0 0 0 0] ------- [2:1 3:0 32 3] [4 0] 0 0
r 1.681047300 _3_ MAC  --- 0 ACK 38 [0 3 0 0] 
s 1.681236659 _2_ MAC  --- 0 RTS 44 [62e 1 2 0] 
r 1.681589318 _1_ MAC  --- 0 RTS 44 [62e 1 2 0] 
s 1.681599318 _1_ MAC  --- 0 CTS 38 [4f4 2 0 0] 
r 1.681903977 _2_ MAC  --- 0 CTS 38 [4f4 2 0 0] 
s 1.681913977 _2_ MAC  --- 17 ack 118 [13a 1 2 800] ------- [2:2 1:0 32 1] [0 0] 0 0
r 1.682858636 _1_ MAC  --- 17 ack 60 [13a 1 2 800] ------- [2:2 1:0 32 1] [0 0] 1 0
s 1.682868636 _1_ MAC  --- 0 ACK 38 [0 2 0 0] 
r 1.682883636 _1_ AGT  --- 17 ack 60 [13a 1 2 800] ------- [2:2 1:0 32 1] [0 0] 1 0
s 1.682883636 _1_ AGT  --- 22 tcp 1540 [0 0 0 0] ------- [1:0 2:2 32 0] [1 0] 0 0
r 1.682883636 _1_ RTR  --- 22 tcp 1540 [0 0 0 0] ------- [1:0 2:2 32 0] [1 0] 0 0
s 1.682883636 _1_ RTR  --- 22 tcp 1560 [0 0 0 0] ------- [1:0 2:2 32 2] [1 0] 0 0
s 1.682883636 _1_ AGT  --- 23 tcp 1540 [0 0 0 0] ------- [1:0 2:2 32 0] [2 0] 0 0
r 1.682883636 _1_ RTR  --- 23 tcp 1540 [0 0 0 0] ------- [1:0 2:2 32 0] [2 0] 0 0
s 1.682883636 _1_ RTR  --- 23 tcp 1560 [0 0 0 0] ------- [1:0 2:2 32 2] [2 0] 0 0
r 1.683173295 _2_ MAC  --- 0 ACK 38 [0 2 0 0] 
s 1.683403295 _2_ MAC  --- 0 RTS 44 [62e 0 2 0] 
r 1.683756034 _0_ MAC  --- 0 RTS 44 [62e 0 2 0] 
s 1.683766034 _0_ MAC  --- 0 CTS 38 [4f4 2 0 0] 
r 1.684070773 _2_ MAC  --- 0 CTS 38 [4f4 2 0 0] 
s 1.684080773 _2_ MAC  --- 20 ack 118 [13a 0 2 800] ------- [2:0 0:0 32 0] [0 0] 0 0
r 1.685025512 _0_ MAC  --- 20 ack 60 [13a 0 2 800] ------- [2:0 0:0 32 0] [0 0] 1 0
s 1.685035512 _0_ MAC  --- 0 ACK 38 [0 2 0 0] 
r 1.685050512 _0_ AGT  --- 20 ack 60 [13a 0 2 800] ------- [2:0 0:0 32 0] [0 0] 1 0
s 1.685050512 _0_ AGT  --- 24 tcp 1540 [0 0 0 0] ------- [0:0 2:0 32 0] [1 0] 0 0
r 1.685050512 _0_ RTR  --- 24 tcp 1540 [0 0 0 0] ------- [0:0 2:0 32 0] [1 0] 0 0
s 1.685050512 _0_ RTR  --- 24 tcp 1560 [0 0 0 0] ------- [0:0 2:0 32 2] [1 0] 0 0
s 1.685050512 _0_ AGT  --- 25 tcp 1540 [0 0 0 0] ------- [0:0 2:0 32 0] [2 0] 0 0
r 1.685050512 _0_ RTR  --- 25 tcp 1540 [0 0 0 0] ------- [0:0 2:0 32 0] [2 0] 0 0
s 1.685050512 _0_ RTR  --- 25 tcp 1560 [0 0 0 0] ------- [0:0 2:0 32 2] [2 0] 0 0
r 1.685340251 _2_ MAC  --- 0 ACK 38 [0 2 0 0] 
s 1.685670251 _2_ MAC  --- 0 RTS 44 [62e 3 2 0] 
r 1.686022891 _3_ MAC  --- 0 RTS 44 [62e 3 2 0] 
s 1.686032891 _3_ MAC  --- 0 CTS 38 [4f4 2 0 0] 
r 1.686337531 _2_ MAC  --- 0 CTS 38 [4f4 2 0 0] 
s 1.686347531 _2_ MAC  --- 21 ack 118 [13a 3 2 800] ------- [2:1 3:0 32 3] [4 0] 0 0
r 1.687292171 _3_ MAC  --- 21 ack 60 [13a 3 2 800] ------- [2:1 3:0 32 3] [4 0] 1 0
s 1.687302171 _3_ MAC  --- 0 ACK 38 [0 2 0 0] 
r 1.687317171 _3_ AGT  --- 21 ack 60 [13a 3 2 800] ------- [2:1 3:0 32 3] [4 0] 1 0
s 1.687317171 _3_ AGT  --- 26 tcp 1540 [0 0 0 0] ------- [3:0 2:1 32 0] [9 0] 0 0
r 1.687317171 _3_ RTR  --- 26 tcp 1540 [0 0 0 0] ------- [3:0 2:1 32 0] [9 0] 0 0
s 1.687317171 _3_ RTR  --- 26 tcp 1560 [0 0 0 0] ------- [3:0 2:1 32 2] [9 0] 0 0
s 1.687317171 _3_ AGT  --- 27 tcp 1540 [0 0 0 0] ------- [3:0 2:1 32 0] [10 0] 0 0
r 1.687317171 _3_ RTR  --- 27 tcp 1540 [0 0 0 0] ------- [3:0 2:1 32 0] [10 0] 0 0
s 1.687317171 _3_ RTR  --- 27 tcp 1560 [0 0 0 0] ------- [3:0 2:1 32 2] [10 0] 0 0
r 1.687606812 _2_ MAC  --- 0 ACK 38 [0 2 0 0] 
s 1.687816171 _3_ MAC  --- 0 RTS 44 [350e 2 3 0] 
r 1.688168812 _2_ MAC  --- 0 RTS 44 [350e 2 3 0] 
s 1.688178812 _2_ MAC  --- 0 CTS 38 [33d4 3 0 0] 
r 1.688483452 _3_ MAC  --- 0 CTS 38 [33d4 3 0 0] 
s 1.688493452 _3_ MAC  --- 14 tcp 1618 [13a 2 3 800] ------- [3:0 2:1 32 2] [5 0] 0 0
r 1.701438092 _2_ MAC  --- 14 tcp 1560 [13a 2 3 800] ------- [3:0 2:1 32 2] [5 0] 1 0
s 1.701448092 _2_ MAC  --- 0 ACK 38 [0 3 0 0] 
r 1.701463092 _2_ AGT  --- 14 tcp 1560 [13a 2 3 800] ------- [3:0 2:1 32 2] [5 0] 1 0
s 1.701463092 _2_ AGT  --- 28 ack 40 [0 0 0 0] ------- [2:1 3:0 32 0] [5 0] 0 0
r 1.701463092 _2_ RTR  --- 28 ack 40 [0 0 0 0] ------- [2:1 3:0 32 0] [5 0] 0 0
s 1.701463092 _2_ RTR  --- 28 ack 60 [0 0 0 0] ------- [2:1 3:0 32 3] [5 0] 0 0
r 1.701752732 _3_ MAC  --- 0 ACK 38 [0 3 0 0] 
s 1.701802732 _3_ MAC  --- 0 RTS 44 [350e 2 3 0] 
r 1.702155373 _2_ MAC  --- 0 RTS 44 [350e 2 3 0] 
s 1.702165373 _2_ MAC  --- 0 CTS 38 [33d4 3 0 0] 
r 1.702470013 _3_ MAC  --- 0 CTS 38 [33d4 3 0 0] 
s 1.702480013 _3_ MAC  --- 15 tcp 1618 [13a 2 3 800] ------- [3:0 2:1 32 2] [6 0] 0 0
r 1.715424653 _2_ MAC  --- 15 tcp 1560 [13a 2 3 800] ------- [3:0 2:1 32 2] [6 0] 1 0
s 1.715434653 _2_ MAC  --- 0 ACK 38 [0 3 0 0] 
r 1.715449653 _2_ AGT  --- 15 tcp 1560 [13a 2 3 800] ------- [3:0 2:1 32 2] [6 0] 1 0
s 1.715449653 _2_ AGT  --- 29 ack 40 [0 0 0 0] ------- [2:1 3:0 32 0] [6 0] 0 0
r 1.715449653 _2_ RTR  --- 29 ack 40 [0 0 0 0] ------- [2:1 3:0 32 0] [6 0] 0 0
s 1.715449653 _2_ RTR  --- 29 ack 60 [0 0 0 0] ------- [2:1 3:0 32 3] [6 0] 0 0
r 1.715739293 _3_ MAC  --- 0 ACK 38 [0 3 0 0] 
s 1.715879083 _0_ MAC  --- 0 RTS 44 [350e 2 0 0] 
r 1.716231822 _2_ MAC  --- 0 RTS 44 [350e 2 0 0] 
s 1.716241822 _2_ MAC  --- 0 CTS 38 [33d4 0 0 0] 
r 1.716546561 _0_ MAC  --- 0 CTS 38 [33d4 0 0 0] 
s 1.716556561 _0_ MAC  --- 24 tcp 1618 [13a 2 0 800] ------- [0:0 2:0 32 2] [1 0] 0 0
r 1.729501300 _2_ MAC  --- 24 tcp 1560 [13a 2 0 800] ------- [0:0 2:0 32 2] [1 0] 1 0
s 1.729511300 _2_ MAC  --- 0 ACK 38 [0 0 0 0] 
r 1.729526300 _2_ AGT  --- 24 tcp 1560 [13a 2 0 800] ------- [0:0 2:0 32 2] [1 0] 1 0
s 1.729526300 _2_ AGT  --- 30 ack 40 [0 0 0 0] ------- [2:0 0:0 32 0] [1 0] 0 0
r 1.729526300 _2_ RTR  --- 30 ack 40 [0 0 0 0] ------- [2:0 0:0 32 0] [1 0] 0 0
s 1.729526300 _2_ RTR  --- 30 ack 60 [0 0 0 0] ------- [2:0 0:0 32 0] [1 0] 0 0
r 1.729816039 _0_ MAC  --- 0 ACK 38 [0 0 0 0] 
s 1.730055631 _3_ MAC  --- 0 RTS 44 [350e 2 3 0] 
r 1.730408272 _2_ MAC  --- 0 RTS 44 [350e 2 3 0] 
s 1.730418272 _2_ MAC  --- 0 CTS 38 [33d4 3 0 0] 
r 1.730722912 _3_ MAC  --- 0 CTS 38 [33d4 3 0 0] 
s 1.730732912 _3_ MAC  --- 18 tcp 1618 [13a 2 3 800] ------- [3:0 2:1 32 2] [7 0] 0 0
r 1.743677552 _2_ MAC  --- 18 tcp 1560 [13a 2 3 800] ------- [3:0 2:1 32 2] [7 0] 1 0
s 1.743687552 _2_ MAC  --- 0 ACK 38 [0 3 0 0] 
r 1.743702552 _2_ AGT  --- 18 tcp 1560 [13a 2 3 800] ------- [3:0 2:1 32 2] [7 0] 1 0
s 1.743702552 _2_ AGT  --- 31 ack 40 [0 0 0 0] ------- [2:1 3:0 32 0] [7 0] 0 0
r 1.743702552 _2_ RTR  --- 31 ack 40 [0 0 0 0] ------- [2:1 3:0 32 0] [7 0] 0 0
s 1.743702552 _2_ RTR  --- 31 ack 60 [0 0 0 0] ------- [2:1 3:0 32 3] [7 0] 0 0
r 1.743992192 _3_ MAC  --- 0 ACK 38 [0 3 0 0] 
s 1.744121552 _2_ MAC  --- 0 RTS 44 [62e 3 2 0] 
r 1.744474192 _3_ MAC  --- 0 RTS 44 [62e 3 2 0] 
s 1.744484192 _3_ MAC  --- 0 CTS 38 [4f4 2 0 0] 
r 1.744788832 _2_ MAC  --- 0 CTS 38 [4f4 2 0 0] 
s 1.744798832 _2_ MAC  --- 28 ack 118 [13a 3 2 800] ------- [2:1 3:0 32 3] [5 0] 0 0
r 1.745743473 _3_ MAC  --- 28 ack 60 [13a 3 2 800] ------- [2:1 3:0 32 3] [5 0] 1 0
s 1.745753473 _3_ MAC  --- 0 ACK 38 [0 2 0 0] 
r 1.745768473 _3_ AGT  --- 28 ack 60 [13a 3 2 800] ------- [2:1 3:0 32 3] [5 0] 1 0
s 1.745768473 _3_ AGT  --- 32 tcp 1540 [0 0 0 0] ------- [3:0 2:1 32 0] [11 0] 0 0
r 1.745768473 _3_ RTR  --- 32 tcp 1540 [0 0 0 0] ------- [3:0 2:1 32 0] [11 0] 0 0
s 1.745768473 _3_ RTR  --- 32 tcp 1560 [0 0 0 0] ------- [3:0 2:1 32 2] [11 0] 0 0
s 1.745768473 _3_ AGT  --- 33 tcp 1540 [0 0 0 0] ------- [3:0 2:1 32 0] [12 0] 0 0
r 1.745768473 _3_ RTR  --- 33 tcp 1540 [0 0 0 0] ------- [3:0 2:1 32 0] [12 0] 0 0
s 1.745768473 _3_ RTR  --- 33 tcp 1560 [0 0 0 0] ------- [3:0 2:1 32 2] [12 0] 0 0
r 1.746058113 _2_ MAC  --- 0 ACK 38 [0 2 0 0] 
s 1.746207473 _3_ MAC  --- 0 RTS 44 [350e 2 3 0] 
r 1.746560113 _2_ MAC  --- 0 RTS 44 [350e 2 3 0] 
s 1.746570113 _2_ MAC  --- 0 CTS 38 [33d4 3 0 0] 
r 1.746874753 _3_ MAC  --- 0 CTS 38 [33d4 3 0 0] 
s 1.746884753 _3_ MAC  --- 19 tcp 1618 [13a 2 3 800] ------- [3:0 2:1 32 2] [8 0] 0 0
r 1.759829393 _2_ MAC  --- 19 tcp 1560 [13a 2 3 800] ------- [3:0 2:1 32 2] [8 0] 1 0
s 1.759839393 _2_ MAC  --- 0 ACK 38 [0 3 0 0] 
r 1.759854393 _2_ AGT  --- 19 tcp 1560 [13a 2 3 800] ------- [3:0 2:1 32 2] [8 0] 1 0
s 1.759854393 _2_ AGT  --- 34 ack 40 [0 0 0 0] ------- [2:1 3:0 32 0] [8 0] 0 0
r 1.759854393 _2_ RTR  --- 34 ack 40 [0 0 0 0] ------- [2:1 3:0 32 0] [8 0] 0 0
s 1.759854393 _2_ RTR  --- 34 ack 60 [0 0 0 0] ------- [2:1 3:0 32 3] [8 0] 0 0
r 1.760144033 _3_ MAC  --- 0 ACK 38 [0 3 0 0] 
s 1.760263820 _1_ MAC  --- 0 RTS 44 [350e 2 1 0] 
r 1.760616479 _2_ MAC  --- 0 RTS 44 [350e 2 1 0] 
s 1.760626479 _2_ MAC  --- 0 CTS 38 [33d4 1 0 0] 
r 1.760931137 _1_ MAC  --- 0 CTS 38 [33d4 1 0 0] 
s 1.760941137 _1_ MAC  --- 22 tcp 1618 [13a 2 1 800] ------- [1:0 2:2 32 2] [1 0] 0 0
r 1.773885796 _2_ MAC  --- 22 tcp 1560 [13a 2 1 800] ------- [1:0 2:2 32 2] [1 0] 1 0
s 1.773895796 _2_ MAC  --- 0 ACK 38 [0 1 0 0] 
r 1.773910796 _2_ AGT  --- 22 tcp 1560 [13a 2 1 800] ------- [1:0 2:2 32 2] [1 0] 1 0
s 1.773910796 _2_ AGT  --- 35 ack 40 [0 0 0 0] ------- [2:2 1:0 32 0] [1 0] 0 0
r 1.773910796 _2_ RTR  --- 35 ack 40 [0 0 0 0] ------- [2:2 1:0 32 0] [1 0] 0 0
s 1.773910796 _2_ RTR  --- 35 ack 60 [0 0 0 0] ------- [2:2 1:0 32 1] [1 0] 0 0
r 1.774200455 _1_ MAC  --- 0 ACK 38 [0 1 0 0] 
s 1.774320204 _3_ MAC  --- 0 RTS 44 [350e 2 3 0] 
r 1.774672844 _2_ MAC  --- 0 RTS 44 [350e 2 3 0] 
s 1.774682844 _2_ MAC  --- 0 CTS 38 [33d4 3 0 0] 
r 1.774987484 _3_ MAC  --- 0 CTS 38 [33d4 3 0 0] 
s 1.774997484 _3_ MAC  --- 26 tcp 1618 [13a 2 3 800] ------- [3:0 2:1 32 2] [9 0] 0 0
r 1.787942125 _2_ MAC  --- 26 tcp 1560 [13a 2 3 800] ------- [3:0 2:1 32 2] [9 0] 1 0
s 1.787952125 _2_ MAC  --- 0 ACK 38 [0 3 0 0] 
r 1.787967125 _2_ AGT  --- 26 tcp 1560 [13a 2 3 800] ------- [3:0 2:1 32 2] [9 0] 1 0
s 1.787967125 _2_ AGT  --- 36 ack 40 [0 0 0 0] ------- [2:1 3:0 32 0] [9 0] 0 0
r 1.787967125 _2_ RTR  --- 36 ack 40 [0 0 0 0] ------- [2:1 3:0 32 0] [9 0] 0 0
s 1.787967125 _2_ RTR  --- 36 ack 60 [0 0 0 0] ------- [2:1 3:0 32 3] [9 0] 0 0
r 1.788256765 _3_ MAC  --- 0 ACK 38 [0 3 0 0] 
s 1.788306765 _3_ MAC  --- 0 RTS 44 [350e 2 3 0] 
r 1.788659405 _2_ MAC  --- 0 RTS 44 [350e 2 3 0] 
s 1.788669405 _2_ MAC  --- 0 CTS 38 [33d4 3 0 0] 
r 1.788974045 _3_ MAC  --- 0 CTS 38 [33d4 3 0 0] 
s 1.788984045 _3_ MAC  --- 27 tcp 1618 [13a 2 3 800] ------- [3:0 2:1 32 2] [10 0] 0 0
r 1.801928686 _2_ MAC  --- 27 tcp 1560 [13a 2 3 800] ------- [3:0 2:1 32 2] [10 0] 1 0
s 1.801938686 _2_ MAC  --- 0 ACK 38 [0 3 0 0] 
r 1.801953686 _2_ AGT  --- 27 tcp 1560 [13a 2 3 800] ------- [3:0 2:1 32 2] [10 0] 1 0
s 1.801953686 _2_ AGT  --- 37 ack 40 [0 0 0 0] ------- [2:1 3:0 32 0] [10 0] 0 0
r 1.801953686 _2_ RTR  --- 37 ack 40 [0 0 0 0] ------- [2:1 3:0 32 0] [10 0] 0 0
s 1.801953686 _2_ RTR  --- 37 ack 60 [0 0 0 0] ------- [2:1 3:0 32 3] [10 0] 0 0
r 1.802243326 _3_ MAC  --- 0 ACK 38 [0 3 0 0] 
s 1.802312686 _2_ MAC  --- 0 RTS 44 [62e 3 2 0] 
r 1.802665326 _3_ MAC  --- 0 RTS 44 [62e 3 2 0] 
s 1.802675326 _3_ MAC  --- 0 CTS 38 [4f4 2 0 0] 
r 1.802979966 _2_ MAC  --- 0 CTS 38 [4f4 2 0 0] 
s 1.802989966 _2_ MAC  --- 29 ack 118 [13a 3 2 800] ------- [2:1 3:0 32 3] [6 0] 0 0
r 1.803934606 _3_ MAC  --- 29 ack 60 [13a 3 2 800] ------- [2:1 3:0 32 3] [6 0] 1 0
s 1.803944606 _3_ MAC  --- 0 ACK 38 [0 2 0 0] 
r 1.803959606 _3_ AGT  --- 29 ack 60 [13a 3 2 800] ------- [2:1 3:0 32 3] [6 0] 1 0
s 1.803959606 _3_ AGT  --- 38 tcp 1540 [0 0 0 0] ------- [3:0 2:1 32 0] [13 0] 0 0
r 1.803959606 _3_ RTR  --- 38 tcp 1540 [0 0 0 0] ------- [3:0 2:1 32 0] [13 0] 0 0
s 1.803959606 _3_ RTR  --- 38 tcp 1560 [0 0 0 0] ------- [3:0 2:1 32 2] [13 0] 0 0
s 1.803959606 _3_ AGT  --- 39 tcp 1540 [0 0 0 0] ------- [3:0 2:1 32 0] [14 0] 0 0
r 1.803959606 _3_ RTR  --- 39 tcp 1540 [0 0 0 0] ------- [3:0 2:1 32 0] [14 0] 0 0
s 1.803959606 _3_ RTR  --- 39 tcp 1560 [0 0 0 0] ------- [3:0 2:1 32 2] [14 0] 0 0
r 1.804249246 _2_ MAC  --- 0 ACK 38 [0 2 0 0] 
s 1.804538606 _3_ MAC  --- 0 RTS 44 [350e 2 3 0] 
r 1.804891246 _2_ MAC  --- 0 RTS 44 [350e 2 3 0] 
s 1.804901246 _2_ MAC  --- 0 CTS 38 [33d4 3 0 0] 
r 1.805205887 _3_ MAC  --- 0 CTS 38 [33d4 3 0 0] 
s 1.805215887 _3_ MAC  --- 32 tcp 1618 [13a 2 3 800] ------- [3:0 2:1 32 2] [11 0] 0 0
r 1.818160527 _2_ MAC  --- 32 tcp 1560 [13a 2 3 800] ------- [3:0 2:1 32 2] [11 0] 1 0
s 1.818170527 _2_ MAC  --- 0 ACK 38 [0 3 0 0] 
r 1.818185527 _2_ AGT  --- 32 tcp 1560 [13a 2 3 800] ------- [3:0 2:1 32 2] [11 0] 1 0
s 1.818185527 _2_ AGT  --- 40 ack 40 [0 0 0 0] ------- [2:1 3:0 32 0] [11 0] 0 0
r 1.818185527 _2_ RTR  --- 40 ack 40 [0 0 0 0] ------- [2:1 3:0 32 0] [11 0] 0 0
s 1.818185527 _2_ RTR  --- 40 ack 60 [0 0 0 0] ------- [2:1 3:0 32 3] [11 0] 0 0
r 1.818475167 _3_ MAC  --- 0 ACK 38 [0 3 0 0] 
s 1.818604527 _2_ MAC  --- 0 RTS 44 [62e 0 2 0] 
r 1.818957266 _0_ MAC  --- 0 RTS 44 [62e 0 2 0] 
s 1.818967266 _0_ MAC  --- 0 CTS 38 [4f4 2 0 0] 
r 1.819272005 _2_ MAC  --- 0 CTS 38 [4f4 2 0 0] 
s 1.819282005 _2_ MAC  --- 30 ack 118 [13a 0 2 800] ------- [2:0 0:0 32 0] [1 0] 0 0
r 1.820226744 _0_ MAC  --- 30 ack 60 [13a 0 2 800] ------- [2:0 0:0 32 0] [1 0] 1 0
s 1.820236744 _0_ MAC  --- 0 ACK 38 [0 2 0 0] 
r 1.820251744 _0_ AGT  --- 30 ack 60 [13a 0 2 800] ------- [2:0 0:0 32 0] [1 0] 1 0
s 1.820251744 _0_ AGT  --- 41 tcp 1540 [0 0 0 0] ------- [0:0 2:0 32 0] [3 0] 0 0
r 1.820251744 _0_ RTR  --- 41 tcp 1540 [0 0 0 0] ------- [0:0 2:0 32 0] [3 0] 0 0
s 1.820251744 _0_ RTR  --- 41 tcp 1560 [0 0 0 0] ------- [0:0 2:0 32 2] [3 0] 0 0
s 1.820251744 _0_ AGT  --- 42 tcp 1540 [0 0 0 0] ------- [0:0 2:0 32 0] [4 0] 0 0
r 1.820251744 _0_ RTR  --- 42 tcp 1540 [0 0 0 0] ------- [0:0 2:0 32 0] [4 0] 0 0
s 1.820251744 _0_ RTR  --- 42 tcp 1560 [0 0 0 0] ------- [0:0 2:0 32 2] [4 0] 0 0
r 1.820541483 _2_ MAC  --- 0 ACK 38 [0 2 0 0] 
s 1.820611483 _2_ MAC  --- 0 RTS 44 [62e 3 2 0] 
r 1.820964123 _3_ MAC  --- 0 RTS 44 [62e 3 2 0] 
s 1.820974123 _3_ MAC  --- 0 CTS 38 [4f4 2 0 0] 
r 1.821278763 _2_ MAC  --- 0 CTS 38 [4f4 2 0 0] 
s 1.821288763 _2_ MAC  --- 31 ack 118 [13a 3 2 800] ------- [2:1 3:0 32 3] [7 0] 0 0
r 1.822233404 _3_ MAC  --- 31 ack 60 [13a 3 2 800] ------- [2:1 3:0 32 3] [7 0] 1 0
s 1.822243404 _3_ MAC  --- 0 ACK 38 [0 2 0 0] 
r 1.822258404 _3_ AGT  --- 31 ack 60 [13a 3 2 800] ------- [2:1 3:0 32 3] [7 0] 1 0
s 1.822258404 _3_ AGT  --- 43 tcp 1540 [0 0 0 0] ------- [3:0 2:1 32 0] [15 0] 0 0
r 1.822258404 _3_ RTR  --- 43 tcp 1540 [0 0 0 0] ------- [3:0 2:1 32 0] [15 0] 0 0
s 1.822258404 _3_ RTR  --- 43 tcp 1560 [0 0 0 0] ------- [3:0 2:1 32 2] [15 0] 0 0
s 1.822258404 _3_ AGT  --- 44 tcp 1540 [0 0 0 0] ------- [3:0 2:1 32 0] [16 0] 0 0
r 1.822258404 _3_ RTR  --- 44 tcp 1540 [0 0 0 0] ------- [3:0 2:1 32 0] [16 0] 0 0
s 1.822258404 _3_ RTR  --- 44 tcp 1560 [0 0 0 0] ------- [3:0 2:1 32 2] [16 0] 0 0
r 1.822548044 _2_ MAC  --- 0 ACK 38 [0 2 0 0] 
s 1.822817404 _3_ MAC  --- 0 RTS 44 [350e 2 3 0] 
r 1.823170044 _2_ MAC  --- 0 RTS 44 [350e 2 3 0] 
s 1.823180044 _2_ MAC  --- 0 CTS 38 [33d4 3 0 0] 
r 1.823484684 _3_ MAC  --- 0 CTS 38 [33d4 3 0 0] 
s 1.823494684 _3_ MAC  --- 33 tcp 1618 [13a 2 3 800] ------- [3:0 2:1 32 2] [12 0] 0 0
r 1.836439324 _2_ MAC  --- 33 tcp 1560 [13a 2 3 800] ------- [3:0 2:1 32 2] [12 0] 1 0
s 1.836449324 _2_ MAC  --- 0 ACK 38 [0 3 0 0] 
r 1.836464324 _2_ AGT  --- 33 tcp 1560 [13a 2 3 800] ------- [3:0 2:1 32 2] [12 0] 1 0
s 1.836464324 _2_ AGT  --- 45 ack 40 [0 0 0 0] ------- [2:1 3:0 32 0] [12 0] 0 0
r 1.836464324 _2_ RTR  --- 45 ack 40 [0 0 0 0] ------- [2:1 3:0 32 0] [12 0] 0 0
s 1.836464324 _2_ RTR  --- 45 ack 60 [0 0 0 0] ------- [2:1 3:0 32 3] [12 0] 0 0
r 1.836753965 _3_ MAC  --- 0 ACK 38 [0 3 0 0] 
s 1.836893754 _0_ MAC  --- 0 RTS 44 [350e 2 0 0] 
r 1.837246493 _2_ MAC  --- 0 RTS 44 [350e 2 0 0] 
s 1.837256493 _2_ MAC  --- 0 CTS 38 [33d4 0 0 0] 
r 1.837561232 _0_ MAC  --- 0 CTS 38 [33d4 0 0 0] 
s 1.837571232 _0_ MAC  --- 25 tcp 1618 [13a 2 0 800] ------- [0:0 2:0 32 2] [2 0] 0 0
r 1.850515971 _2_ MAC  --- 25 tcp 1560 [13a 2 0 800] ------- [0:0 2:0 32 2] [2 0] 1 0
s 1.850525971 _2_ MAC  --- 0 ACK 38 [0 0 0 0] 
r 1.850540971 _2_ AGT  --- 25 tcp 1560 [13a 2 0 800] ------- [0:0 2:0 32 2] [2 0] 1 0
s 1.850540971 _2_ AGT  --- 46 ack 40 [0 0 0 0] ------- [2:0 0:0 32 0] [2 0] 0 0
r 1.850540971 _2_ RTR  --- 46 ack 40 [0 0 0 0] ------- [2:0 0:0 32 0] [2 0] 0 0
s 1.850540971 _2_ RTR  --- 46 ack 60 [0 0 0 0] ------- [2:0 0:0 32 0] [2 0] 0 0
r 1.850830710 _0_ MAC  --- 0 ACK 38 [0 0 0 0] 
s 1.851000710 _0_ MAC  --- 0 RTS 44 [350e 2 0 0] 
r 1.851353450 _2_ MAC  --- 0 RTS 44 [350e 2 0 0] 