V -t * -v 1.0a5 -a 0
A -t * -n 1 -p 0 -o 0x7fffffff -c 30 -a 1
A -t * -h 1 -m 1073741823 -s 0
n -t * -a 0 -s 0 -S UP -v circle -c black -i black
n -t * -a 1 -s 1 -S UP -v circle -c black -i black
n -t * -a 2 -s 2 -S UP -v circle -c black -i black
n -t * -a 3 -s 3 -S UP -v circle -c black -i black
n -t * -a 4 -s 4 -S UP -v circle -c black -i black
n -t * -a 5 -s 5 -S UP -v circle -c black -i black
n -t * -a 6 -s 6 -S UP -v circle -c black -i black
n -t * -a 7 -s 7 -S UP -v circle -c black -i black
n -t * -a 8 -s 8 -S UP -v circle -c black -i black
n -t * -a 9 -s 9 -S UP -v circle -c black -i black
n -t * -a 10 -s 10 -S UP -v circle -c black -i black
n -t * -a 11 -s 11 -S UP -v circle -c black -i black
l -t * -s 2 -d 0 -S UP -r 100000000 -D 0.01 -c black -o left-up
l -t * -s 1 -d 2 -S UP -r 100000000 -D 0.01 -c black -o right-up
l -t * -s 3 -d 2 -S UP -r 100000000 -D 0.01 -c black -o left-down
l -t * -s 2 -d 4 -S UP -r 100000000 -D 0.01 -c black -o right-down
l -t * -s 5 -d 3 -S UP -r 100000000 -D 0.01 -c black -o left-up
l -t * -s 4 -d 5 -S UP -r 100000000 -D 0.01 -c black -o right-up
l -t * -s 6 -d 7 -S UP -r 100000000 -D 0.01 -c black -o right-up
l -t * -s 6 -d 8 -S UP -r 100000000 -D 0.01 -c black -o right-down
l -t * -s 7 -d 9 -S UP -r 100000000 -D 0.01 -c black -o right-down
l -t * -s 8 -d 9 -S UP -r 100000000 -D 0.01 -c black -o right-up
l -t * -s 9 -d 10 -S UP -r 500000 -D 0.01 -c black -o right-up
l -t * -s 9 -d 11 -S UP -r 500000 -D 0.01 -c black -o right-down
l -t * -s 5 -d 6 -S UP -r 300000 -D 0.01 -c black -o right
+ -t 1 -s 0 -d 2 -p tcp -e 40 -c 0 -i 0 -a 0 -x {0.0 10.0 0 ------- null}
- -t 1 -s 0 -d 2 -p tcp -e 40 -c 0 -i 0 -a 0 -x {0.0 10.0 0 ------- null}
h -t 1 -s 0 -d 2 -p tcp -e 40 -c 0 -i 0 -a 0 -x {0.0 10.0 -1 ------- null}
+ -t 1 -s 1 -d 2 -p cbr -e 1000 -c 0 -i 1 -a 0 -x {1.0 11.0 0 ------- null}
- -t 1 -s 1 -d 2 -p cbr -e 1000 -c 0 -i 1 -a 0 -x {1.0 11.0 0 ------- null}
h -t 1 -s 1 -d 2 -p cbr -e 1000 -c 0 -i 1 -a 0 -x {1.0 11.0 -1 ------- null}
+ -t 1.008 -s 1 -d 2 -p cbr -e 1000 -c 0 -i 2 -a 0 -x {1.0 11.0 1 ------- null}
- -t 1.008 -s 1 -d 2 -p cbr -e 1000 -c 0 -i 2 -a 0 -x {1.0 11.0 1 ------- null}
h -t 1.008 -s 1 -d 2 -p cbr -e 1000 -c 0 -i 2 -a 0 -x {1.0 11.0 -1 ------- null}
r -t 1.0100032 -s 0 -d 2 -p tcp -e 40 -c 0 -i 0 -a 0 -x {0.0 10.0 0 ------- null}
+ -t 1.0100032 -s 2 -d 3 -p tcp -e 40 -c 0 -i 0 -a 0 -x {0.0 10.0 0 ------- null}
- -t 1.0100032 -s 2 -d 3 -p tcp -e 40 -c 0 -i 0 -a 0 -x {0.0 10.0 0 ------- null}
h -t 1.0100032 -s 2 -d 3 -p tcp -e 40 -c 0 -i 0 -a 0 -x {0.0 10.0 -1 ------- null}
r -t 1.01008 -s 1 -d 2 -p cbr -e 1000 -c 0 -i 1 -a 0 -x {1.0 11.0 0 ------- null}
+ -t 1.01008 -s 2 -d 3 -p cbr -e 1000 -c 0 -i 1 -a 0 -x {1.0 11.0 0 ------- null}
- -t 1.01008 -s 2 -d 3 -p cbr -e 1000 -c 0 -i 1 -a 0 -x {1.0 11.0 0 ------- null}
h -t 1.01008 -s 2 -d 3 -p cbr -e 1000 -c 0 -i 1 -a 0 -x {1.0 11.0 -1 ------- null}
+ -t 1.016 -s 1 -d 2 -p cbr -e 1000 -c 0 -i 3 -a 0 -x {1.0 11.0 2 ------- null}
- -t 1.016 -s 1 -d 2 -p cbr -e 1000 -c 0 -i 3 -a 0 -x {1.0 11.0 2 ------- null}
h -t 1.016 -s 1 -d 2 -p cbr -e 1000 -c 0 -i 3 -a 0 -x {1.0 11.0 -1 ------- null}
r -t 1.01808 -s 1 -d 2 -p cbr -e 1000 -c 0 -i 2 -a 0 -x {1.0 11.0 1 ------- null}
+ -t 1.01808 -s 2 -d 3 -p cbr -e 1000 -c 0 -i 2 -a 0 -x {1.0 11.0 1 ------- null}
- -t 1.01808 -s 2 -d 3 -p cbr -e 1000 -c 0 -i 2 -a 0 -x {1.0 11.0 1 ------- null}
h -t 1.01808 -s 2 -d 3 -p cbr -e 1000 -c 0 -i 2 -a 0 -x {1.0 11.0 -1 ------- null}
r -t 1.0200064 -s 2 -d 3 -p tcp -e 40 -c 0 -i 0 -a 0 -x {0.0 10.0 0 ------- null}
+ -t 1.0200064 -s 3 -d 5 -p tcp -e 40 -c 0 -i 0 -a 0 -x {0.0 10.0 0 ------- null}
- -t 1.0200064 -s 3 -d 5 -p tcp -e 40 -c 0 -i 0 -a 0 -x {0.0 10.0 0 ------- null}
h -t 1.0200064 -s 3 -d 5 -p tcp -e 40 -c 0 -i 0 -a 0 -x {0.0 10.0 -1 ------- null}
r -t 1.02016 -s 2 -d 3 -p cbr -e 1000 -c 0 -i 1 -a 0 -x {1.0 11.0 0 ------- null}
+ -t 1.02016 -s 3 -d 5 -p cbr -e 1000 -c 0 -i 1 -a 0 -x {1.0 11.0 0 ------- null}
- -t 1.02016 -s 3 -d 5 -p cbr -e 1000 -c 0 -i 1 -a 0 -x {1.0 11.0 0 ------- null}
h -t 1.02016 -s 3 -d 5 -p cbr -e 1000 -c 0 -i 1 -a 0 -x {1.0 11.0 -1 ------- null}
+ -t 1.024 -s 1 -d 2 -p cbr -e 1000 -c 0 -i 4 -a 0 -x {1.0 11.0 3 ------- null}
- -t 1.024 -s 1 -d 2 -p cbr -e 1000 -c 0 -i 4 -a 0 -x {1.0 11.0 3 ------- null}
h -t 1.024 -s 1 -d 2 -p cbr -e 1000 -c 0 -i 4 -a 0 -x {1.0 11.0 -1 ------- null}
r -t 1.02608 -s 1 -d 2 -p cbr -e 1000 -c 0 -i 3 -a 0 -x {1.0 11.0 2 ------- null}
+ -t 1.02608 -s 2 -d 3 -p cbr -e 1000 -c 0 -i 3 -a 0 -x {1.0 11.0 2 ------- null}
- -t 1.02608 -s 2 -d 3 -p cbr -e 1000 -c 0 -i 3 -a 0 -x {1.0 11.0 2 ------- null}
h -t 1.02608 -s 2 -d 3 -p cbr -e 1000 -c 0 -i 3 -a 0 -x {1.0 11.0 -1 ------- null}
r -t 1.02816 -s 2 -d 3 -p cbr -e 1000 -c 0 -i 2 -a 0 -x {1.0 11.0 1 ------- null}
+ -t 1.02816 -s 3 -d 5 -p cbr -e 1000 -c 0 -i 2 -a 0 -x {1.0 11.0 1 ------- null}
- -t 1.02816 -s 3 -d 5 -p cbr -e 1000 -c 0 -i 2 -a 0 -x {1.0 11.0 1 ------- null}
h -t 1.02816 -s 3 -d 5 -p cbr -e 1000 -c 0 -i 2 -a 0 -x {1.0 11.0 -1 ------- null}
r -t 1.0300096 -s 3 -d 5 -p tcp -e 40 -c 0 -i 0 -a 0 -x {0.0 10.0 0 ------- null}
+ -t 1.0300096 -s 5 -d 6 -p tcp -e 40 -c 0 -i 0 -a 0 -x {0.0 10.0 0 ------- null}
- -t 1.0300096 -s 5 -d 6 -p tcp -e 40 -c 0 -i 0 -a 0 -x {0.0 10.0 0 ------- null}
h -t 1.0300096 -s 5 -d 6 -p tcp -e 40 -c 0 -i 0 -a 0 -x {0.0 10.0 -1 ------- null}
r -t 1.03024 -s 3 -d 5 -p cbr -e 1000 -c 0 -i 1 -a 0 -x {1.0 11.0 0 ------- null}
+ -t 1.03024 -s 5 -d 6 -p cbr -e 1000 -c 0 -i 1 -a 0 -x {1.0 11.0 0 ------- null}
- -t 1.03107626666667 -s 5 -d 6 -p cbr -e 1000 -c 0 -i 1 -a 0 -x {1.0 11.0 0 ------- null}
h -t 1.03107626666667 -s 5 -d 6 -p cbr -e 1000 -c 0 -i 1 -a 0 -x {1.0 11.0 -1 ------- null}
+ -t 1.032 -s 1 -d 2 -p cbr -e 1000 -c 0 -i 5 -a 0 -x {1.0 11.0 4 ------- null}
- -t 1.032 -s 1 -d 2 -p cbr -e 1000 -c 0 -i 5 -a 0 -x {1.0 11.0 4 ------- null}
h -t 1.032 -s 1 -d 2 -p cbr -e 1000 -c 0 -i 5 -a 0 -x {1.0 11.0 -1 ------- null}
r -t 1.03408 -s 1 -d 2 -p cbr -e 1000 -c 0 -i 4 -a 0 -x {1.0 11.0 3 ------- null}
+ -t 1.03408 -s 2 -d 3 -p cbr -e 1000 -c 0 -i 4 -a 0 -x {1.0 11.0 3 ------- null}
- -t 1.03408 -s 2 -d 3 -p cbr -e 1000 -c 0 -i 4 -a 0 -x {1.0 11.0 3 ------- null}
h -t 1.03408 -s 2 -d 3 -p cbr -e 1000 -c 0 -i 4 -a 0 -x {1.0 11.0 -1 ------- null}
r -t 1.03616 -s 2 -d 3 -p cbr -e 1000 -c 0 -i 3 -a 0 -x {1.0 11.0 2 ------- null}
+ -t 1.03616 -s 3 -d 5 -p cbr -e 1000 -c 0 -i 3 -a 0 -x {1.0 11.0 2 ------- null}
- -t 1.03616 -s 3 -d 5 -p cbr -e 1000 -c 0 -i 3 -a 0 -x {1.0 11.0 2 ------- null}
h -t 1.03616 -s 3 -d 5 -p cbr -e 1000 -c 0 -i 3 -a 0 -x {1.0 11.0 -1 ------- null}
r -t 1.03824 -s 3 -d 5 -p cbr -e 1000 -c 0 -i 2 -a 0 -x {1.0 11.0 1 ------- null}
+ -t 1.03824 -s 5 -d 6 -p cbr -e 1000 -c 0 -i 2 -a 0 -x {1.0 11.0 1 ------- null}
+ -t 1.04 -s 1 -d 2 -p cbr -e 1000 -c 0 -i 6 -a 0 -x {1.0 11.0 5 ------- null}
- -t 1.04 -s 1 -d 2 -p cbr -e 1000 -c 0 -i 6 -a 0 -x {1.0 11.0 5 ------- null}
h -t 1.04 -s 1 -d 2 -p cbr -e 1000 -c 0 -i 6 -a 0 -x {1.0 11.0 -1 ------- null}
r -t 1.04107626666667 -s 5 -d 6 -p tcp -e 40 -c 0 -i 0 -a 0 -x {0.0 10.0 0 ------- null}
+ -t 1.04107626666667 -s 6 -d 7 -p tcp -e 40 -c 0 -i 0 -a 0 -x {0.0 10.0 0 ------- null}
- -t 1.04107626666667 -s 6 -d 7 -p tcp -e 40 -c 0 -i 0 -a 0 -x {0.0 10.0 0 ------- null}
h -t 1.04107626666667 -s 6 -d 7 -p tcp -e 40 -c 0 -i 0 -a 0 -x {0.0 10.0 -1 ------- null}
r -t 1.04208 -s 1 -d 2 -p cbr -e 1000 -c 0 -i 5 -a 0 -x {1.0 11.0 4 ------- null}
+ -t 1.04208 -s 2 -d 3 -p cbr -e 1000 -c 0 -i 5 -a 0 -x {1.0 11.0 4 ------- null}
- -t 1.04208 -s 2 -d 3 -p cbr -e 1000 -c 0 -i 5 -a 0 -x {1.0 11.0 4 ------- null}
h -t 1.04208 -s 2 -d 3 -p cbr -e 1000 -c 0 -i 5 -a 0 -x {1.0 11.0 -1 ------- null}
r -t 1.04416 -s 2 -d 3 -p cbr -e 1000 -c 0 -i 4 -a 0 -x {1.0 11.0 3 ------- null}
+ -t 1.04416 -s 3 -d 5 -p cbr -e 1000 -c 0 -i 4 -a 0 -x {1.0 11.0 3 ------- null}
- -t 1.04416 -s 3 -d 5 -p cbr -e 1000 -c 0 -i 4 -a 0 -x {1.0 11.0 3 ------- null}
h -t 1.04416 -s 3 -d 5 -p cbr -e 1000 -c 0 -i 4 -a 0 -x {1.0 11.0 -1 ------- null}
r -t 1.04624 -s 3 -d 5 -p cbr -e 1000 -c 0 -i 3 -a 0 -x {1.0 11.0 2 ------- null}
+ -t 1.04624 -s 5 -d 6 -p cbr -e 1000 -c 0 -i 3 -a 0 -x {1.0 11.0 2 ------- null}
+ -t 1.048 -s 1 -d 2 -p cbr -e 1000 -c 0 -i 7 -a 0 -x {1.0 11.0 6 ------- null}
- -t 1.048 -s 1 -d 2 -p cbr -e 1000 -c 0 -i 7 -a 0 -x {1.0 11.0 6 ------- null}
h -t 1.048 -s 1 -d 2 -p cbr -e 1000 -c 0 -i 7 -a 0 -x {1.0 11.0 -1 ------- null}
r -t 1.05008 -s 1 -d 2 -p cbr -e 1000 -c 0 -i 6 -a 0 -x {1.0 11.0 5 ------- null}
+ -t 1.05008 -s 2 -d 3 -p cbr -e 1000 -c 0 -i 6 -a 0 -x {1.0 11.0 5 ------- null}
- -t 1.05008 -s 2 -d 3 -p cbr -e 1000 -c 0 -i 6 -a 0 -x {1.0 11.0 5 ------- null}
h -t 1.05008 -s 2 -d 3 -p cbr -e 1000 -c 0 -i 6 -a 0 -x {1.0 11.0 -1 ------- null}
r -t 1.05107946666667 -s 6 -d 7 -p tcp -e 40 -c 0 -i 0 -a 0 -x {0.0 10.0 0 ------- null}
+ -t 1.05107946666667 -s 7 -d 9 -p tcp -e 40 -c 0 -i 0 -a 0 -x {0.0 10.0 0 ------- null}
- -t 1.05107946666667 -s 7 -d 9 -p tcp -e 40 -c 0 -i 0 -a 0 -x {0.0 10.0 0 ------- null}
h -t 1.05107946666667 -s 7 -d 9 -p tcp -e 40 -c 0 -i 0 -a 0 -x {0.0 10.0 -1 ------- null}
r -t 1.05216 -s 2 -d 3 -p cbr -e 1000 -c 0 -i 5 -a 0 -x {1.0 11.0 4 ------- null}
+ -t 1.05216 -s 3 -d 5 -p cbr -e 1000 -c 0 -i 5 -a 0 -x {1.0 11.0 4 ------- null}
- -t 1.05216 -s 3 -d 5 -p cbr -e 1000 -c 0 -i 5 -a 0 -x {1.0 11.0 4 ------- null}
h -t 1.05216 -s 3 -d 5 -p cbr -e 1000 -c 0 -i 5 -a 0 -x {1.0 11.0 -1 ------- null}
r -t 1.05424 -s 3 -d 5 -p cbr -e 1000 -c 0 -i 4 -a 0 -x {1.0 11.0 3 ------- null}
+ -t 1.05424 -s 5 -d 6 -p cbr -e 1000 -c 0 -i 4 -a 0 -x {1.0 11.0 3 ------- null}
+ -t 1.056 -s 1 -d 2 -p cbr -e 1000 -c 0 -i 8 -a 0 -x {1.0 11.0 7 ------- null}
- -t 1.056 -s 1 -d 2 -p cbr -e 1000 -c 0 -i 8 -a 0 -x {1.0 11.0 7 ------- null}
h -t 1.056 -s 1 -d 2 -p cbr -e 1000 -c 0 -i 8 -a 0 -x {1.0 11.0 -1 ------- null}
- -t 1.05774293333333 -s 5 -d 6 -p cbr -e 1000 -c 0 -i 2 -a 0 -x {1.0 11.0 1 ------- null}
h -t 1.05774293333333 -s 5 -d 6 -p cbr -e 1000 -c 0 -i 2 -a 0 -x {1.0 11.0 -1 ------- null}
r -t 1.05808 -s 1 -d 2 -p cbr -e 1000 -c 0 -i 7 -a 0 -x {1.0 11.0 6 ------- null}
+ -t 1.05808 -s 2 -d 3 -p cbr -e 1000 -c 0 -i 7 -a 0 -x {1.0 11.0 6 ------- null}
- -t 1.05808 -s 2 -d 3 -p cbr -e 1000 -c 0 -i 7 -a 0 -x {1.0 11.0 6 ------- null}
h -t 1.05808 -s 2 -d 3 -p cbr -e 1000 -c 0 -i 7 -a 0 -x {1.0 11.0 -1 ------- null}
r -t 1.06016 -s 2 -d 3 -p cbr -e 1000 -c 0 -i 6 -a 0 -x {1.0 11.0 5 ------- null}
+ -t 1.06016 -s 3 -d 5 -p cbr -e 1000 -c 0 -i 6 -a 0 -x {1.0 11.0 5 ------- null}
- -t 1.06016 -s 3 -d 5 -p cbr -e 1000 -c 0 -i 6 -a 0 -x {1.0 11.0 5 ------- null}
h -t 1.06016 -s 3 -d 5 -p cbr -e 1000 -c 0 -i 6 -a 0 -x {1.0 11.0 -1 ------- null}
r -t 1.06108266666667 -s 7 -d 9 -p tcp -e 40 -c 0 -i 0 -a 0 -x {0.0 10.0 0 ------- null}
+ -t 1.06108266666667 -s 9 -d 10 -p tcp -e 40 -c 0 -i 0 -a 0 -x {0.0 10.0 0 ------- null}
- -t 1.06108266666667 -s 9 -d 10 -p tcp -e 40 -c 0 -i 0 -a 0 -x {0.0 10.0 0 ------- null}
h -t 1.06108266666667 -s 9 -d 10 -p tcp -e 40 -c 0 -i 0 -a 0 -x {0.0 10.0 -1 ------- null}
r -t 1.06224 -s 3 -d 5 -p cbr -e 1000 -c 0 -i 5 -a 0 -x {1.0 11.0 4 ------- null}
+ -t 1.06224 -s 5 -d 6 -p cbr -e 1000 -c 0 -i 5 -a 0 -x {1.0 11.0 4 ------- null}
+ -t 1.064 -s 1 -d 2 -p cbr -e 1000 -c 0 -i 9 -a 0 -x {1.0 11.0 8 ------- null}
- -t 1.064 -s 1 -d 2 -p cbr -e 1000 -c 0 -i 9 -a 0 -x {1.0 11.0 8 ------- null}
h -t 1.064 -s 1 -d 2 -p cbr -e 1000 -c 0 -i 9 -a 0 -x {1.0 11.0 -1 ------- null}
r -t 1.06608 -s 1 -d 2 -p cbr -e 1000 -c 0 -i 8 -a 0 -x {1.0 11.0 7 ------- null}
+ -t 1.06608 -s 2 -d 3 -p cbr -e 1000 -c 0 -i 8 -a 0 -x {1.0 11.0 7 ------- null}
- -t 1.06608 -s 2 -d 3 -p cbr -e 1000 -c 0 -i 8 -a 0 -x {1.0 11.0 7 ------- null}
h -t 1.06608 -s 2 -d 3 -p cbr -e 1000 -c 0 -i 8 -a 0 -x {1.0 11.0 -1 ------- null}
r -t 1.06774293333333 -s 5 -d 6 -p cbr -e 1000 -c 0 -i 1 -a 0 -x {1.0 11.0 0 ------- null}
+ -t 1.06774293333333 -s 6 -d 7 -p cbr -e 1000 -c 0 -i 1 -a 0 -x {1.0 11.0 0 ------- null}
- -t 1.06774293333333 -s 6 -d 7 -p cbr -e 1000 -c 0 -i 1 -a 0 -x {1.0 11.0 0 ------- null}
h -t 1.06774293333333 -s 6 -d 7 -p cbr -e 1000 -c 0 -i 1 -a 0 -x {1.0 11.0 -1 ------- null}
r -t 1.06816 -s 2 -d 3 -p cbr -e 1000 -c 0 -i 7 -a 0 -x {1.0 11.0 6 ------- null}
+ -t 1.06816 -s 3 -d 5 -p cbr -e 1000 -c 0 -i 7 -a 0 -x {1.0 11.0 6 ------- null}
- -t 1.06816 -s 3 -d 5 -p cbr -e 1000 -c 0 -i 7 -a 0 -x {1.0 11.0 6 ------- null}
h -t 1.06816 -s 3 -d 5 -p cbr -e 1000 -c 0 -i 7 -a 0 -x {1.0 11.0 -1 ------- null}
r -t 1.07024 -s 3 -d 5 -p cbr -e 1000 -c 0 -i 6 -a 0 -x {1.0 11.0 5 ------- null}
+ -t 1.07024 -s 5 -d 6 -p cbr -e 1000 -c 0 -i 6 -a 0 -x {1.0 11.0 5 ------- null}
r -t 1.07172266666667 -s 9 -d 10 -p tcp -e 40 -c 0 -i 0 -a 0 -x {0.0 10.0 0 ------- null}
+ -t 1.07172266666667 -s 10 -d 9 -p ack -e 40 -c 0 -i 10 -a 0 -x {10.0 0.0 0 ------- null}
- -t 1.07172266666667 -s 10 -d 9 -p ack -e 40 -c 0 -i 10 -a 0 -x {10.0 0.0 0 ------- null}
h -t 1.07172266666667 -s 10 -d 9 -p ack -e 40 -c 0 -i 10 -a 0 -x {10.0 0.0 -1 ------- null}
+ -t 1.072 -s 1 -d 2 -p cbr -e 1000 -c 0 -i 11 -a 0 -x {1.0 11.0 9 ------- null}
- -t 1.072 -s 1 -d 2 -p cbr -e 1000 -c 0 -i 11 -a 0 -x {1.0 11.0 9 ------- null}
h -t 1.072 -s 1 -d 2 -p cbr -e 1000 -c 0 -i 11 -a 0 -x {1.0 11.0 -1 ------- null}
r -t 1.07408 -s 1 -d 2 -p cbr -e 1000 -c 0 -i 9 -a 0 -x {1.0 11.0 8 ------- null}
+ -t 1.07408 -s 2 -d 3 -p cbr -e 1000 -c 0 -i 9 -a 0 -x {1.0 11.0 8 ------- null}
- -t 1.07408 -s 2 -d 3 -p cbr -e 1000 -c 0 -i 9 -a 0 -x {1.0 11.0 8 ------- null}
h -t 1.07408 -s 2 -d 3 -p cbr -e 1000 -c 0 -i 9 -a 0 -x {1.0 11.0 -1 ------- null}
r -t 1.07616 -s 2 -d 3 -p cbr -e 1000 -c 0 -i 8 -a 0 -x {1.0 11.0 7 ------- null}
+ -t 1.07616 -s 3 -d 5 -p cbr -e 1000 -c 0 -i 8 -a 0 -x {1.0 11.0 7 ------- null}
- -t 1.07616 -s 3 -d 5 -p cbr -e 1000 -c 0 -i 8 -a 0 -x {1.0 11.0 7 ------- null}
h -t 1.07616 -s 3 -d 5 -p cbr -e 1000 -c 0 -i 8 -a 0 -x {1.0 11.0 -1 ------- null}
r -t 1.07782293333333 -s 6 -d 7 -p cbr -e 1000 -c 0 -i 1 -a 0 -x {1.0 11.0 0 ------- null}
+ -t 1.07782293333333 -s 7 -d 9 -p cbr -e 1000 -c 0 -i 1 -a 0 -x {1.0 11.0 0 ------- null}
- -t 1.07782293333333 -s 7 -d 9 -p cbr -e 1000 -c 0 -i 1 -a 0 -x {1.0 11.0 0 ------- null}
h -t 1.07782293333333 -s 7 -d 9 -p cbr -e 1000 -c 0 -i 1 -a 0 -x {1.0 11.0 -1 ------- null}
r -t 1.07824 -s 3 -d 5 -p cbr -e 1000 -c 0 -i 7 -a 0 -x {1.0 11.0 6 ------- null}
+ -t 1.07824 -s 5 -d 6 -p cbr -e 1000 -c 0 -i 7 -a 0 -x {1.0 11.0 6 ------- null}
+ -t 1.08 -s 1 -d 2 -p cbr -e 1000 -c 0 -i 12 -a 0 -x {1.0 11.0 10 ------- null}
- -t 1.08 -s 1 -d 2 -p cbr -e 1000 -c 0 -i 12 -a 0 -x {1.0 11.0 10 ------- null}
h -t 1.08 -s 1 -d 2 -p cbr -e 1000 -c 0 -i 12 -a 0 -x {1.0 11.0 -1 ------- null}
r -t 1.08208 -s 1 -d 2 -p cbr -e 1000 -c 0 -i 11 -a 0 -x {1.0 11.0 9 ------- null}
+ -t 1.08208 -s 2 -d 3 -p cbr -e 1000 -c 0 -i 11 -a 0 -x {1.0 11.0 9 ------- null}
- -t 1.08208 -s 2 -d 3 -p cbr -e 1000 -c 0 -i 11 -a 0 -x {1.0 11.0 9 ------- null}
h -t 1.08208 -s 2 -d 3 -p cbr -e 1000 -c 0 -i 11 -a 0 -x {1.0 11.0 -1 ------- null}
r -t 1.08236266666667 -s 10 -d 9 -p ack -e 40 -c 0 -i 10 -a 0 -x {10.0 0.0 0 ------- null}
+ -t 1.08236266666667 -s 9 -d 7 -p ack -e 40 -c 0 -i 10 -a 0 -x {10.0 0.0 0 ------- null}
- -t 1.08236266666667 -s 9 -d 7 -p ack -e 40 -c 0 -i 10 -a 0 -x {10.0 0.0 0 ------- null}
h -t 1.08236266666667 -s 9 -d 7 -p ack -e 40 -c 0 -i 10 -a 0 -x {10.0 0.0 -1 ------- null}
r -t 1.08416 -s 2 -d 3 -p cbr -e 1000 -c 0 -i 9 -a 0 -x {1.0 11.0 8 ------- null}
+ -t 1.08416 -s 3 -d 5 -p cbr -e 1000 -c 0 -i 9 -a 0 -x {1.0 11.0 8 ------- null}
- -t 1.08416 -s 3 -d 5 -p cbr -e 1000 -c 0 -i 9 -a 0 -x {1.0 11.0 8 ------- null}
h -t 1.08416 -s 3 -d 5 -p cbr -e 1000 -c 0 -i 9 -a 0 -x {1.0 11.0 -1 ------- null}
- -t 1.0844096 -s 5 -d 6 -p cbr -e 1000 -c 0 -i 3 -a 0 -x {1.0 11.0 2 ------- null}
h -t 1.0844096 -s 5 -d 6 -p cbr -e 1000 -c 0 -i 3 -a 0 -x {1.0 11.0 -1 ------- null}
r -t 1.08624 -s 3 -d 5 -p cbr -e 1000 -c 0 -i 8 -a 0 -x {1.0 11.0 7 ------- null}
+ -t 1.08624 -s 5 -d 6 -p cbr -e 1000 -c 0 -i 8 -a 0 -x {1.0 11.0 7 ------- null}
r -t 1.08790293333333 -s 7 -d 9 -p cbr -e 1000 -c 0 -i 1 -a 0 -x {1.0 11.0 0 ------- null}
+ -t 1.08790293333333 -s 9 -d 11 -p cbr -e 1000 -c 0 -i 1 -a 0 -x {1.0 11.0 0 ------- null}
- -t 1.08790293333333 -s 9 -d 11 -p cbr -e 1000 -c 0 -i 1 -a 0 -x {1.0 11.0 0 ------- null}
h -t 1.08790293333333 -s 9 -d 11 -p cbr -e 1000 -c 0 -i 1 -a 0 -x {1.0 11.0 -1 ------- null}
+ -t 1.088 -s 1 -d 2 -p cbr -e 1000 -c 0 -i 13 -a 0 -x {1.0 11.0 11 ------- null}
- -t 1.088 -s 1 -d 2 -p cbr -e 1000 -c 0 -i 13 -a 0 -x {1.0 11.0 11 ------- null}
h -t 1.088 -s 1 -d 2 -p cbr -e 1000 -c 0 -i 13 -a 0 -x {1.0 11.0 -1 ------- null}
r -t 1.09008 -s 1 -d 2 -p cbr -e 1000 -c 0 -i 12 -a 0 -x {1.0 11.0 10 ------- null}
+ -t 1.09008 -s 2 -d 3 -p cbr -e 1000 -c 0 -i 12 -a 0 -x {1.0 11.0 10 ------- null}
- -t 1.09008 -s 2 -d 3 -p cbr -e 1000 -c 0 -i 12 -a 0 -x {1.0 11.0 10 ------- null}
h -t 1.09008 -s 2 -d 3 -p cbr -e 1000 -c 0 -i 12 -a 0 -x {1.0 11.0 -1 ------- null}
r -t 1.09216 -s 2 -d 3 -p cbr -e 1000 -c 0 -i 11 -a 0 -x {1.0 11.0 9 ------- null}
+ -t 1.09216 -s 3 -d 5 -p cbr -e 1000 -c 0 -i 11 -a 0 -x {1.0 11.0 9 ------- null}
- -t 1.09216 -s 3 -d 5 -p cbr -e 1000 -c 0 -i 11 -a 0 -x {1.0 11.0 9 ------- null}
h -t 1.09216 -s 3 -d 5 -p cbr -e 1000 -c 0 -i 11 -a 0 -x {1.0 11.0 -1 ------- null}
r -t 1.09236586666667 -s 9 -d 7 -p ack -e 40 -c 0 -i 10 -a 0 -x {10.0 0.0 0 ------- null}
+ -t 1.09236586666667 -s 7 -d 6 -p ack -e 40 -c 0 -i 10 -a 0 -x {10.0 0.0 0 ------- null}
- -t 1.09236586666667 -s 7 -d 6 -p ack -e 40 -c 0 -i 10 -a 0 -x {10.0 0.0 0 ------- null}
h -t 1.09236586666667 -s 7 -d 6 -p ack -e 40 -c 0 -i 10 -a 0 -x {10.0 0.0 -1 ------- null}
r -t 1.09424 -s 3 -d 5 -p cbr -e 1000 -c 0 -i 9 -a 0 -x {1.0 11.0 8 ------- null}
+ -t 1.09424 -s 5 -d 6 -p cbr -e 1000 -c 0 -i 9 -a 0 -x {1.0 11.0 8 ------- null}
r -t 1.0944096 -s 5 -d 6 -p cbr -e 1000 -c 0 -i 2 -a 0 -x {1.0 11.0 1 ------- null}
+ -t 1.0944096 -s 6 -d 7 -p cbr -e 1000 -c 0 -i 2 -a 0 -x {1.0 11.0 1 ------- null}
- -t 1.0944096 -s 6 -d 7 -p cbr -e 1000 -c 0 -i 2 -a 0 -x {1.0 11.0 1 ------- null}
h -t 1.0944096 -s 6 -d 7 -p cbr -e 1000 -c 0 -i 2 -a 0 -x {1.0 11.0 -1 ------- null}
+ -t 1.096 -s 1 -d 2 -p cbr -e 1000 -c 0 -i 14 -a 0 -x {1.0 11.0 12 ------- null}
- -t 1.096 -s 1 -d 2 -p cbr -e 1000 -c 0 -i 14 -a 0 -x {1.0 11.0 12 ------- null}
h -t 1.096 -s 1 -d 2 -p cbr -e 1000 -c 0 -i 14 -a 0 -x {1.0 11.0 -1 ------- null}
r -t 1.09808 -s 1 -d 2 -p cbr -e 1000 -c 0 -i 13 -a 0 -x {1.0 11.0 11 ------- null}
+ -t 1.09808 -s 2 -d 3 -p cbr -e 1000 -c 0 -i 13 -a 0 -x {1.0 11.0 11 ------- null}
- -t 1.09808 -s 2 -d 3 -p cbr -e 1000 -c 0 -i 13 -a 0 -x {1.0 11.0 11 ------- null}
h -t 1.09808 -s 2 -d 3 -p cbr -e 1000 -c 0 -i 13 -a 0 -x {1.0 11.0 -1 ------- null}
r -t 1.10016 -s 2 -d 3 -p cbr -e 1000 -c 0 -i 12 -a 0 -x {1.0 11.0 10 ------- null}
+ -t 1.10016 -s 3 -d 5 -p cbr -e 1000 -c 0 -i 12 -a 0 -x {1.0 11.0 10 ------- null}
- -t 1.10016 -s 3 -d 5 -p cbr -e 1000 -c 0 -i 12 -a 0 -x {1.0 11.0 10 ------- null}
h -t 1.10016 -s 3 -d 5 -p cbr -e 1000 -c 0 -i 12 -a 0 -x {1.0 11.0 -1 ------- null}
r -t 1.10224 -s 3 -d 5 -p cbr -e 1000 -c 0 -i 11 -a 0 -x {1.0 11.0 9 ------- null}
+ -t 1.10224 -s 5 -d 6 -p cbr -e 1000 -c 0 -i 11 -a 0 -x {1.0 11.0 9 ------- null}
r -t 1.10236906666667 -s 7 -d 6 -p ack -e 40 -c 0 -i 10 -a 0 -x {10.0 0.0 0 ------- null}
+ -t 1.10236906666667 -s 6 -d 5 -p ack -e 40 -c 0 -i 10 -a 0 -x {10.0 0.0 0 ------- null}
- -t 1.10236906666667 -s 6 -d 5 -p ack -e 40 -c 0 -i 10 -a 0 -x {10.0 0.0 0 ------- null}
h -t 1.10236906666667 -s 6 -d 5 -p ack -e 40 -c 0 -i 10 -a 0 -x {10.0 0.0 -1 ------- null}
+ -t 1.104 -s 1 -d 2 -p cbr -e 1000 -c 0 -i 15 -a 0 -x {1.0 11.0 13 ------- null}
- -t 1.104 -s 1 -d 2 -p cbr -e 1000 -c 0 -i 15 -a 0 -x {1.0 11.0 13 ------- null}
h -t 1.104 -s 1 -d 2 -p cbr -e 1000 -c 0 -i 15 -a 0 -x {1.0 11.0 -1 ------- null}
r -t 1.1044896 -s 6 -d 7 -p cbr -e 1000 -c 0 -i 2 -a 0 -x {1.0 11.0 1 ------- null}
+ -t 1.1044896 -s 7 -d 9 -p cbr -e 1000 -c 0 -i 2 -a 0 -x {1.0 11.0 1 ------- null}
- -t 1.1044896 -s 7 -d 9 -p cbr -e 1000 -c 0 -i 2 -a 0 -x {1.0 11.0 1 ------- null}
h -t 1.1044896 -s 7 -d 9 -p cbr -e 1000 -c 0 -i 2 -a 0 -x {1.0 11.0 -1 ------- null}
r -t 1.10608 -s 1 -d 2 -p cbr -e 1000 -c 0 -i 14 -a 0 -x {1.0 11.0 12 ------- null}
+ -t 1.10608 -s 2 -d 3 -p cbr -e 1000 -c 0 -i 14 -a 0 -x {1.0 11.0 12 ------- null}
- -t 1.10608 -s 2 -d 3 -p cbr -e 1000 -c 0 -i 14 -a 0 -x {1.0 11.0 12 ------- null}
h -t 1.10608 -s 2 -d 3 -p cbr -e 1000 -c 0 -i 14 -a 0 -x {1.0 11.0 -1 ------- null}
r -t 1.10816 -s 2 -d 3 -p cbr -e 1000 -c 0 -i 13 -a 0 -x {1.0 11.0 11 ------- null}
+ -t 1.10816 -s 3 -d 5 -p cbr -e 1000 -c 0 -i 13 -a 0 -x {1.0 11.0 11 ------- null}
- -t 1.10816 -s 3 -d 5 -p cbr -e 1000 -c 0 -i 13 -a 0 -x {1.0 11.0 11 ------- null}
h -t 1.10816 -s 3 -d 5 -p cbr -e 1000 -c 0 -i 13 -a 0 -x {1.0 11.0 -1 ------- null}
r -t 1.11024 -s 3 -d 5 -p cbr -e 1000 -c 0 -i 12 -a 0 -x {1.0 11.0 10 ------- null}
+ -t 1.11024 -s 5 -d 6 -p cbr -e 1000 -c 0 -i 12 -a 0 -x {1.0 11.0 10 ------- null}
- -t 1.11107626666667 -s 5 -d 6 -p cbr -e 1000 -c 0 -i 4 -a 0 -x {1.0 11.0 3 ------- null}
h -t 1.11107626666667 -s 5 -d 6 -p cbr -e 1000 -c 0 -i 4 -a 0 -x {1.0 11.0 -1 ------- null}
+ -t 1.112 -s 1 -d 2 -p cbr -e 1000 -c 0 -i 16 -a 0 -x {1.0 11.0 14 ------- null}
- -t 1.112 -s 1 -d 2 -p cbr -e 1000 -c 0 -i 16 -a 0 -x {1.0 11.0 14 ------- null}
h -t 1.112 -s 1 -d 2 -p cbr -e 1000 -c 0 -i 16 -a 0 -x {1.0 11.0 -1 ------- null}
r -t 1.11343573333333 -s 6 -d 5 -p ack -e 40 -c 0 -i 10 -a 0 -x {10.0 0.0 0 ------- null}
+ -t 1.11343573333333 -s 5 -d 3 -p ack -e 40 -c 0 -i 10 -a 0 -x {10.0 0.0 0 ------- null}
- -t 1.11343573333333 -s 5 -d 3 -p ack -e 40 -c 0 -i 10 -a 0 -x {10.0 0.0 0 ------- null}
h -t 1.11343573333333 -s 5 -d 3 -p ack -e 40 -c 0 -i 10 -a 0 -x {10.0 0.0 -1 ------- null}
r -t 1.11390293333333 -s 9 -d 11 -p cbr -e 1000 -c 0 -i 1 -a 0 -x {1.0 11.0 0 ------- null}
r -t 1.11408 -s 1 -d 2 -p cbr -e 1000 -c 0 -i 15 -a 0 -x {1.0 11.0 13 ------- null}
+ -t 1.11408 -s 2 -d 3 -p cbr -e 1000 -c 0 -i 15 -a 0 -x {1.0 11.0 13 ------- null}
- -t 1.11408 -s 2 -d 3 -p cbr -e 1000 -c 0 -i 15 -a 0 -x {1.0 11.0 13 ------- null}
h -t 1.11408 -s 2 -d 3 -p cbr -e 1000 -c 0 -i 15 -a 0 -x {1.0 11.0 -1 ------- null}
r -t 1.1145696 -s 7 -d 9 -p cbr -e 1000 -c 0 -i 2 -a 0 -x {1.0 11.0 1 ------- null}
+ -t 1.1145696 -s 9 -d 11 -p cbr -e 1000 -c 0 -i 2 -a 0 -x {1.0 11.0 1 ------- null}
- -t 1.1145696 -s 9 -d 11 -p cbr -e 1000 -c 0 -i 2 -a 0 -x {1.0 11.0 1 ------- null}
h -t 1.1145696 -s 9 -d 11 -p cbr -e 1000 -c 0 -i 2 -a 0 -x {1.0 11.0 -1 ------- null}
r -t 1.11616 -s 2 -d 3 -p cbr -e 1000 -c 0 -i 14 -a 0 -x {1.0 11.0 12 ------- null}
+ -t 1.11616 -s 3 -d 5 -p cbr -e 1000 -c 0 -i 14 -a 0 -x {1.0 11.0 12 ------- null}
- -t 1.11616 -s 3 -d 5 -p cbr -e 1000 -c 0 -i 14 -a 0 -x {1.0 11.0 12 ------- null}
h -t 1.11616 -s 3 -d 5 -p cbr -e 1000 -c 0 -i 14 -a 0 -x {1.0 11.0 -1 ------- null}
r -t 1.11824 -s 3 -d 5 -p cbr -e 1000 -c 0 -i 13 -a 0 -x {1.0 11.0 11 ------- null}
+ -t 1.11824 -s 5 -d 6 -p cbr -e 1000 -c 0 -i 13 -a 0 -x {1.0 11.0 11 ------- null}
+ -t 1.12 -s 1 -d 2 -p cbr -e 1000 -c 0 -i 17 -a 0 -x {1.0 11.0 15 ------- null}
- -t 1.12 -s 1 -d 2 -p cbr -e 1000 -c 0 -i 17 -a 0 -x {1.0 11.0 15 ------- null}
h -t 1.12 -s 1 -d 2 -p cbr -e 1000 -c 0 -i 17 -a 0 -x {1.0 11.0 -1 ------- null}
r -t 1.12107626666667 -s 5 -d 6 -p cbr -e 1000 -c 0 -i 3 -a 0 -x {1.0 11.0 2 ------- null}
+ -t 1.12107626666667 -s 6 -d 7 -p cbr -e 1000 -c 0 -i 3 -a 0 -x {1.0 11.0 2 ------- null}
- -t 1.12107626666667 -s 6 -d 7 -p cbr -e 1000 -c 0 -i 3 -a 0 -x {1.0 11.0 2 ------- null}
h -t 1.12107626666667 -s 6 -d 7 -p cbr -e 1000 -c 0 -i 3 -a 0 -x {1.0 11.0 -1 ------- null}
r -t 1.12208 -s 1 -d 2 -p cbr -e 1000 -c 0 -i 16 -a 0 -x {1.0 11.0 14 ------- null}
+ -t 1.12208 -s 2 -d 3 -p cbr -e 1000 -c 0 -i 16 -a 0 -x {1.0 11.0 14 ------- null}
- -t 1.12208 -s 2 -d 3 -p cbr -e 1000 -c 0 -i 16 -a 0 -x {1.0 11.0 14 ------- null}
h -t 1.12208 -s 2 -d 3 -p cbr -e 1000 -c 0 -i 16 -a 0 -x {1.0 11.0 -1 ------- null}
r -t 1.12343893333333 -s 5 -d 3 -p ack -e 40 -c 0 -i 10 -a 0 -x {10.0 0.0 0 ------- null}
+ -t 1.12343893333333 -s 3 -d 2 -p ack -e 40 -c 0 -i 10 -a 0 -x {10.0 0.0 0 ------- null}
- -t 1.12343893333333 -s 3 -d 2 -p ack -e 40 -c 0 -i 10 -a 0 -x {10.0 0.0 0 ------- null}
h -t 1.12343893333333 -s 3 -d 2 -p ack -e 40 -c 0 -i 10 -a 0 -x {10.0 0.0 -1 ------- null}
r -t 1.12416 -s 2 -d 3 -p cbr -e 1000 -c 0 -i 15 -a 0 -x {1.0 11.0 13 ------- null}
+ -t 1.12416 -s 3 -d 5 -p cbr -e 1000 -c 0 -i 15 -a 0 -x {1.0 11.0 13 ------- null}
- -t 1.12416 -s 3 -d 5 -p cbr -e 1000 -c 0 -i 15 -a 0 -x {1.0 11.0 13 ------- null}
h -t 1.12416 -s 3 -d 5 -p cbr -e 1000 -c 0 -i 15 -a 0 -x {1.0 11.0 -1 ------- null}
r -t 1.12624 -s 3 -d 5 -p cbr -e 1000 -c 0 -i 14 -a 0 -x {1.0 11.0 12 ------- null}
+ -t 1.12624 -s 5 -d 6 -p cbr -e 1000 -c 0 -i 14 -a 0 -x {1.0 11.0 12 ------- null}
+ -t 1.128 -s 1 -d 2 -p cbr -e 1000 -c 0 -i 18 -a 0 -x {1.0 11.0 16 ------- null}
- -t 1.128 -s 1 -d 2 -p cbr -e 1000 -c 0 -i 18 -a 0 -x {1.0 11.0 16 ------- null}
h -t 1.128 -s 1 -d 2 -p cbr -e 1000 -c 0 -i 18 -a 0 -x {1.0 11.0 -1 ------- null}
r -t 1.13008 -s 1 -d 2 -p cbr -e 1000 -c 0 -i 17 -a 0 -x {1.0 11.0 15 ------- null}
+ -t 1.13008 -s 2 -d 3 -p cbr -e 1000 -c 0 -i 17 -a 0 -x {1.0 11.0 15 ------- null}
- -t 1.13008 -s 2 -d 3 -p cbr -e 1000 -c 0 -i 17 -a 0 -x {1.0 11.0 15 ------- null}
h -t 1.13008 -s 2 -d 3 -p cbr -e 1000 -c 0 -i 17 -a 0 -x {1.0 11.0 -1 ------- null}
r -t 1.13115626666667 -s 6 -d 7 -p cbr -e 1000 -c 0 -i 3 -a 0 -x {1.0 11.0 2 ------- null}
+ -t 1.13115626666667 -s 7 -d 9 -p cbr -e 1000 -c 0 -i 3 -a 0 -x {1.0 11.0 2 ------- null}
- -t 1.13115626666667 -s 7 -d 9 -p cbr -e 1000 -c 0 -i 3 -a 0 -x {1.0 11.0 2 ------- null}
h -t 1.13115626666667 -s 7 -d 9 -p cbr -e 1000 -c 0 -i 3 -a 0 -x {1.0 11.0 -1 ------- null}
r -t 1.13216 -s 2 -d 3 -p cbr -e 1000 -c 0 -i 16 -a 0 -x {1.0 11.0 14 ------- null}
+ -t 1.13216 -s 3 -d 5 -p cbr -e 1000 -c 0 -i 16 -a 0 -x {1.0 11.0 14 ------- null}
- -t 1.13216 -s 3 -d 5 -p cbr -e 1000 -c 0 -i 16 -a 0 -x {1.0 11.0 14 ------- null}
h -t 1.13216 -s 3 -d 5 -p cbr -e 1000 -c 0 -i 16 -a 0 -x {1.0 11.0 -1 ------- null}
r -t 1.13344213333333 -s 3 -d 2 -p ack -e 40 -c 0 -i 10 -a 0 -x {10.0 0.0 0 ------- null}
+ -t 1.13344213333333 -s 2 -d 0 -p ack -e 40 -c 0 -i 10 -a 0 -x {10.0 0.0 0 ------- null}
- -t 1.13344213333333 -s 2 -d 0 -p ack -e 40 -c 0 -i 10 -a 0 -x {10.0 0.0 0 ------- null}
h -t 1.13344213333333 -s 2 -d 0 -p ack -e 40 -c 0 -i 10 -a 0 -x {10.0 0.0 -1 ------- null}
r -t 1.13424 -s 3 -d 5 -p cbr -e 1000 -c 0 -i 15 -a 0 -x {1.0 11.0 13 ------- null}
+ -t 1.13424 -s 5 -d 6 -p cbr -e 1000 -c 0 -i 15 -a 0 -x {1.0 11.0 13 ------- null}
+ -t 1.136 -s 1 -d 2 -p cbr -e 1000 -c 0 -i 19 -a 0 -x {1.0 11.0 17 ------- null}
- -t 1.136 -s 1 -d 2 -p cbr -e 1000 -c 0 -i 19 -a 0 -x {1.0 11.0 17 ------- null}
h -t 1.136 -s 1 -d 2 -p cbr -e 1000 -c 0 -i 19 -a 0 -x {1.0 11.0 -1 ------- null}
- -t 1.13774293333333 -s 5 -d 6 -p cbr -e 1000 -c 0 -i 5 -a 0 -x {1.0 11.0 4 ------- null}
h -t 1.13774293333333 -s 5 -d 6 -p cbr -e 1000 -c 0 -i 5 -a 0 -x {1.0 11.0 -1 ------- null}
r -t 1.13808 -s 1 -d 2 -p cbr -e 1000 -c 0 -i 18 -a 0 -x {1.0 11.0 16 ------- null}
+ -t 1.13808 -s 2 -d 3 -p cbr -e 1000 -c 0 -i 18 -a 0 -x {1.0 11.0 16 ------- null}
- -t 1.13808 -s 2 -d 3 -p cbr -e 1000 -c 0 -i 18 -a 0 -x {1.0 11.0 16 ------- null}
h -t 1.13808 -s 2 -d 3 -p cbr -e 1000 -c 0 -i 18 -a 0 -x {1.0 11.0 -1 ------- null}
r -t 1.14016 -s 2 -d 3 -p cbr -e 1000 -c 0 -i 17 -a 0 -x {1.0 11.0 15 ------- null}
+ -t 1.14016 -s 3 -d 5 -p cbr -e 1000 -c 0 -i 17 -a 0 -x {1.0 11.0 15 ------- null}
- -t 1.14016 -s 3 -d 5 -p cbr -e 1000 -c 0 -i 17 -a 0 -x {1.0 11.0 15 ------- null}
h -t 1.14016 -s 3 -d 5 -p cbr -e 1000 -c 0 -i 17 -a 0 -x {1.0 11.0 -1 ------- null}
r -t 1.1405696 -s 9 -d 11 -p cbr -e 1000 -c 0 -i 2 -a 0 -x {1.0 11.0 1 ------- null}
r -t 1.14123626666667 -s 7 -d 9 -p cbr -e 1000 -c 0 -i 3 -a 0 -x {1.0 11.0 2 ------- null}
+ -t 1.14123626666667 -s 9 -d 11 -p cbr -e 1000 -c 0 -i 3 -a 0 -x {1.0 11.0 2 ------- null}
- -t 1.14123626666667 -s 9 -d 11 -p cbr -e 1000 -c 0 -i 3 -a 0 -x {1.0 11.0 2 ------- null}
h -t 1.14123626666667 -s 9 -d 11 -p cbr -e 1000 -c 0 -i 3 -a 0 -x {1.0 11.0 -1 ------- null}
r -t 1.14224 -s 3 -d 5 -p cbr -e 1000 -c 0 -i 16 -a 0 -x {1.0 11.0 14 ------- null}
+ -t 1.14224 -s 5 -d 6 -p cbr -e 1000 -c 0 -i 16 -a 0 -x {1.0 11.0 14 ------- null}
r -t 1.14344533333333 -s 2 -d 0 -p ack -e 40 -c 0 -i 10 -a 0 -x {10.0 0.0 0 ------- null}
+ -t 1.14344533333333 -s 0 -d 2 -p tcp -e 1540 -c 0 -i 20 -a 0 -x {0.0 10.0 1 ------- null}
- -t 1.14344533333333 -s 0 -d 2 -p tcp -e 1540 -c 0 -i 20 -a 0 -x {0.0 10.0 1 ------- null}
h -t 1.14344533333333 -s 0 -d 2 -p tcp -e 1540 -c 0 -i 20 -a 0 -x {0.0 10.0 -1 ------- null}
+ -t 1.14344533333333 -s 0 -d 2 -p tcp -e 1540 -c 0 -i 21 -a 0 -x {0.0 10.0 2 ------- null}
- -t 1.14356853333333 -s 0 -d 2 -p tcp -e 1540 -c 0 -i 21 -a 0 -x {0.0 10.0 2 ------- null}
h -t 1.14356853333333 -s 0 -d 2 -p tcp -e 1540 -c 0 -i 21 -a 0 -x {0.0 10.0 -1 ------- null}
+ -t 1.144 -s 1 -d 2 -p cbr -e 1000 -c 0 -i 22 -a 0 -x {1.0 11.0 18 ------- null}
- -t 1.144 -s 1 -d 2 -p cbr -e 1000 -c 0 -i 22 -a 0 -x {1.0 11.0 18 ------- null}
h -t 1.144 -s 1 -d 2 -p cbr -e 1000 -c 0 -i 22 -a 0 -x {1.0 11.0 -1 ------- null}
r -t 1.14608 -s 1 -d 2 -p cbr -e 1000 -c 0 -i 19 -a 0 -x {1.0 11.0 17 ------- null}
+ -t 1.14608 -s 2 -d 3 -p cbr -e 1000 -c 0 -i 19 -a 0 -x {1.0 11.0 17 ------- null}
- -t 1.14608 -s 2 -d 3 -p cbr -e 1000 -c 0 -i 19 -a 0 -x {1.0 11.0 17 ------- null}
h -t 1.14608 -s 2 -d 3 -p cbr -e 1000 -c 0 -i 19 -a 0 -x {1.0 11.0 -1 ------- null}
r -t 1.14774293333333 -s 5 -d 6 -p cbr -e 1000 -c 0 -i 4 -a 0 -x {1.0 11.0 3 ------- null}
+ -t 1.14774293333333 -s 6 -d 7 -p cbr -e 1000 -c 0 -i 4 -a 0 -x {1.0 11.0 3 ------- null}
- -t 1.14774293333333 -s 6 -d 7 -p cbr -e 1000 -c 0 -i 4 -a 0 -x {1.0 11.0 3 ------- null}