+ 1 0 2 tcp 40 ------- 0 0.0 10.0 0 0
- 1 0 2 tcp 40 ------- 0 0.0 10.0 0 0
+ 1 1 2 cbr 1000 ------- 0 1.0 11.0 0 1
- 1 1 2 cbr 1000 ------- 0 1.0 11.0 0 1
+ 1.008 1 2 cbr 1000 ------- 0 1.0 11.0 1 2
- 1.008 1 2 cbr 1000 ------- 0 1.0 11.0 1 2
r 1.010003 0 2 tcp 40 ------- 0 0.0 10.0 0 0
+ 1.010003 2 3 tcp 40 ------- 0 0.0 10.0 0 0
- 1.010003 2 3 tcp 40 ------- 0 0.0 10.0 0 0
r 1.01008 1 2 cbr 1000 ------- 0 1.0 11.0 0 1
+ 1.01008 2 3 cbr 1000 ------- 0 1.0 11.0 0 1
- 1.01008 2 3 cbr 1000 ------- 0 1.0 11.0 0 1
+ 1.016 1 2 cbr 1000 ------- 0 1.0 11.0 2 3
- 1.016 1 2 cbr 1000 ------- 0 1.0 11.0 2 3
r 1.01808 1 2 cbr 1000 ------- 0 1.0 11.0 1 2
+ 1.01808 2 3 cbr 1000 ------- 0 1.0 11.0 1 2
- 1.01808 2 3 cbr 1000 ------- 0 1.0 11.0 1 2
r 1.020006 2 3 tcp 40 ------- 0 0.0 10.0 0 0
+ 1.020006 3 5 tcp 40 ------- 0 0.0 10.0 0 0
- 1.020006 3 5 tcp 40 ------- 0 0.0 10.0 0 0
r 1.02016 2 3 cbr 1000 ------- 0 1.0 11.0 0 1
+ 1.02016 3 5 cbr 1000 ------- 0 1.0 11.0 0 1
- 1.02016 3 5 cbr 1000 ------- 0 1.0 11.0 0 1
+ 1.024 1 2 cbr 1000 ------- 0 1.0 11.0 3 4
- 1.024 1 2 cbr 1000 ------- 0 1.0 11.0 3 4
r 1.02608 1 2 cbr 1000 ------- 0 1.0 11.0 2 3
+ 1.02608 2 3 cbr 1000 ------- 0 1.0 11.0 2 3
- 1.02608 2 3 cbr 1000 ------- 0 1.0 11.0 2 3
r 1.02816 2 3 cbr 1000 ------- 0 1.0 11.0 1 2
+ 1.02816 3 5 cbr 1000 ------- 0 1.0 11.0 1 2
- 1.02816 3 5 cbr 1000 ------- 0 1.0 11.0 1 2
r 1.03001 3 5 tcp 40 ------- 0 0.0 10.0 0 0
+ 1.03001 5 6 tcp 40 ------- 0 0.0 10.0 0 0
- 1.03001 5 6 tcp 40 ------- 0 0.0 10.0 0 0
r 1.03024 3 5 cbr 1000 ------- 0 1.0 11.0 0 1
+ 1.03024 5 6 cbr 1000 ------- 0 1.0 11.0 0 1
- 1.031076 5 6 cbr 1000 ------- 0 1.0 11.0 0 1
+ 1.032 1 2 cbr 1000 ------- 0 1.0 11.0 4 5
- 1.032 1 2 cbr 1000 ------- 0 1.0 11.0 4 5
r 1.03408 1 2 cbr 1000 ------- 0 1.0 11.0 3 4
+ 1.03408 2 3 cbr 1000 ------- 0 1.0 11.0 3 4
- 1.03408 2 3 cbr 1000 ------- 0 1.0 11.0 3 4
r 1.03616 2 3 cbr 1000 ------- 0 1.0 11.0 2 3
+ 1.03616 3 5 cbr 1000 ------- 0 1.0 11.0 2 3
- 1.03616 3 5 cbr 1000 ------- 0 1.0 11.0 2 3
r 1.03824 3 5 cbr 1000 ------- 0 1.0 11.0 1 2
+ 1.03824 5 6 cbr 1000 ------- 0 1.0 11.0 1 2
+ 1.04 1 2 cbr 1000 ------- 0 1.0 11.0 5 6
- 1.04 1 2 cbr 1000 ------- 0 1.0 11.0 5 6
r 1.041076 5 6 tcp 40 ------- 0 0.0 10.0 0 0
+ 1.041076 6 7 tcp 40 ------- 0 0.0 10.0 0 0
- 1.041076 6 7 tcp 40 ------- 0 0.0 10.0 0 0
r 1.04208 1 2 cbr 1000 ------- 0 1.0 11.0 4 5
+ 1.04208 2 3 cbr 1000 ------- 0 1.0 11.0 4 5
- 1.04208 2 3 cbr 1000 ------- 0 1.0 11.0 4 5
r 1.04416 2 3 cbr 1000 ------- 0 1.0 11.0 3 4
+ 1.04416 3 5 cbr 1000 ------- 0 1.0 11.0 3 4
- 1.04416 3 5 cbr 1000 ------- 0 1.0 11.0 3 4
r 1.04624 3 5 cbr 1000 ------- 0 1.0 11.0 2 3
+ 1.04624 5 6 cbr 1000 ------- 0 1.0 11.0 2 3
+ 1.048 1 2 cbr 1000 ------- 0 1.0 11.0 6 7
- 1.048 1 2 cbr 1000 ------- 0 1.0 11.0 6 7
r 1.05008 1 2 cbr 1000 ------- 0 1.0 11.0 5 6
+ 1.05008 2 3 cbr 1000 ------- 0 1.0 11.0 5 6
- 1.05008 2 3 cbr 1000 ------- 0 1.0 11.0 5 6
r 1.051079 6 7 tcp 40 ------- 0 0.0 10.0 0 0
+ 1.051079 7 9 tcp 40 ------- 0 0.0 10.0 0 0
- 1.051079 7 9 tcp 40 ------- 0 0.0 10.0 0 0
r 1.05216 2 3 cbr 1000 ------- 0 1.0 11.0 4 5
+ 1.05216 3 5 cbr 1000 ------- 0 1.0 11.0 4 5
- 1.05216 3 5 cbr 1000 ------- 0 1.0 11.0 4 5
r 1.05424 3 5 cbr 1000 ------- 0 1.0 11.0 3 4
+ 1.05424 5 6 cbr 1000 ------- 0 1.0 11.0 3 4
+ 1.056 1 2 cbr 1000 ------- 0 1.0 11.0 7 8
- 1.056 1 2 cbr 1000 ------- 0 1.0 11.0 7 8
- 1.057743 5 6 cbr 1000 ------- 0 1.0 11.0 1 2
r 1.05808 1 2 cbr 1000 ------- 0 1.0 11.0 6 7
+ 1.05808 2 3 cbr 1000 ------- 0 1.0 11.0 6 7
- 1.05808 2 3 cbr 1000 ------- 0 1.0 11.0 6 7
r 1.06016 2 3 cbr 1000 ------- 0 1.0 11.0 5 6
+ 1.06016 3 5 cbr 1000 ------- 0 1.0 11.0 5 6
- 1.06016 3 5 cbr 1000 ------- 0 1.0 11.0 5 6
r 1.061083 7 9 tcp 40 ------- 0 0.0 10.0 0 0
+ 1.061083 9 10 tcp 40 ------- 0 0.0 10.0 0 0
- 1.061083 9 10 tcp 40 ------- 0 0.0 10.0 0 0
r 1.06224 3 5 cbr 1000 ------- 0 1.0 11.0 4 5
+ 1.06224 5 6 cbr 1000 ------- 0 1.0 11.0 4 5
+ 1.064 1 2 cbr 1000 ------- 0 1.0 11.0 8 9
- 1.064 1 2 cbr 1000 ------- 0 1.0 11.0 8 9
r 1.06608 1 2 cbr 1000 ------- 0 1.0 11.0 7 8
+ 1.06608 2 3 cbr 1000 ------- 0 1.0 11.0 7 8
- 1.06608 2 3 cbr 1000 ------- 0 1.0 11.0 7 8
r 1.067743 5 6 cbr 1000 ------- 0 1.0 11.0 0 1
+ 1.067743 6 7 cbr 1000 ------- 0 1.0 11.0 0 1
- 1.067743 6 7 cbr 1000 ------- 0 1.0 11.0 0 1
r 1.06816 2 3 cbr 1000 ------- 0 1.0 11.0 6 7
+ 1.06816 3 5 cbr 1000 ------- 0 1.0 11.0 6 7
- 1.06816 3 5 cbr 1000 ------- 0 1.0 11.0 6 7
r 1.07024 3 5 cbr 1000 ------- 0 1.0 11.0 5 6
+ 1.07024 5 6 cbr 1000 ------- 0 1.0 11.0 5 6
r 1.071723 9 10 tcp 40 ------- 0 0.0 10.0 0 0
+ 1.071723 10 9 ack 40 ------- 0 10.0 0.0 0 10
- 1.071723 10 9 ack 40 ------- 0 10.0 0.0 0 10
+ 1.072 1 2 cbr 1000 ------- 0 1.0 11.0 9 11
- 1.072 1 2 cbr 1000 ------- 0 1.0 11.0 9 11
r 1.07408 1 2 cbr 1000 ------- 0 1.0 11.0 8 9
+ 1.07408 2 3 cbr 1000 ------- 0 1.0 11.0 8 9
- 1.07408 2 3 cbr 1000 ------- 0 1.0 11.0 8 9
r 1.07616 2 3 cbr 1000 ------- 0 1.0 11.0 7 8
+ 1.07616 3 5 cbr 1000 ------- 0 1.0 11.0 7 8
- 1.07616 3 5 cbr 1000 ------- 0 1.0 11.0 7 8
r 1.077823 6 7 cbr 1000 ------- 0 1.0 11.0 0 1
+ 1.077823 7 9 cbr 1000 ------- 0 1.0 11.0 0 1
- 1.077823 7 9 cbr 1000 ------- 0 1.0 11.0 0 1
r 1.07824 3 5 cbr 1000 ------- 0 1.0 11.0 6 7
+ 1.07824 5 6 cbr 1000 ------- 0 1.0 11.0 6 7
+ 1.08 1 2 cbr 1000 ------- 0 1.0 11.0 10 12
- 1.08 1 2 cbr 1000 ------- 0 1.0 11.0 10 12
r 1.08208 1 2 cbr 1000 ------- 0 1.0 11.0 9 11
+ 1.08208 2 3 cbr 1000 ------- 0 1.0 11.0 9 11
- 1.08208 2 3 cbr 1000 ------- 0 1.0 11.0 9 11
r 1.082363 10 9 ack 40 ------- 0 10.0 0.0 0 10
+ 1.082363 9 7 ack 40 ------- 0 10.0 0.0 0 10
- 1.082363 9 7 ack 40 ------- 0 10.0 0.0 0 10
r 1.08416 2 3 cbr 1000 ------- 0 1.0 11.0 8 9
+ 1.08416 3 5 cbr 1000 ------- 0 1.0 11.0 8 9
- 1.08416 3 5 cbr 1000 ------- 0 1.0 11.0 8 9
- 1.08441 5 6 cbr 1000 ------- 0 1.0 11.0 2 3
r 1.08624 3 5 cbr 1000 ------- 0 1.0 11.0 7 8
+ 1.08624 5 6 cbr 1000 ------- 0 1.0 11.0 7 8
r 1.087903 7 9 cbr 1000 ------- 0 1.0 11.0 0 1
+ 1.087903 9 11 cbr 1000 ------- 0 1.0 11.0 0 1
- 1.087903 9 11 cbr 1000 ------- 0 1.0 11.0 0 1
+ 1.088 1 2 cbr 1000 ------- 0 1.0 11.0 11 13
- 1.088 1 2 cbr 1000 ------- 0 1.0 11.0 11 13
r 1.09008 1 2 cbr 1000 ------- 0 1.0 11.0 10 12
+ 1.09008 2 3 cbr 1000 ------- 0 1.0 11.0 10 12
- 1.09008 2 3 cbr 1000 ------- 0 1.0 11.0 10 12
r 1.09216 2 3 cbr 1000 ------- 0 1.0 11.0 9 11
+ 1.09216 3 5 cbr 1000 ------- 0 1.0 11.0 9 11
- 1.09216 3 5 cbr 1000 ------- 0 1.0 11.0 9 11
r 1.092366 9 7 ack 40 ------- 0 10.0 0.0 0 10
+ 1.092366 7 6 ack 40 ------- 0 10.0 0.0 0 10
- 1.092366 7 6 ack 40 ------- 0 10.0 0.0 0 10
r 1.09424 3 5 cbr 1000 ------- 0 1.0 11.0 8 9
+ 1.09424 5 6 cbr 1000 ------- 0 1.0 11.0 8 9
r 1.09441 5 6 cbr 1000 ------- 0 1.0 11.0 1 2
+ 1.09441 6 7 cbr 1000 ------- 0 1.0 11.0 1 2
- 1.09441 6 7 cbr 1000 ------- 0 1.0 11.0 1 2
+ 1.096 1 2 cbr 1000 ------- 0 1.0 11.0 12 14
- 1.096 1 2 cbr 1000 ------- 0 1.0 11.0 12 14
r 1.09808 1 2 cbr 1000 ------- 0 1.0 11.0 11 13
+ 1.09808 2 3 cbr 1000 ------- 0 1.0 11.0 11 13
- 1.09808 2 3 cbr 1000 ------- 0 1.0 11.0 11 13
r 1.10016 2 3 cbr 1000 ------- 0 1.0 11.0 10 12
+ 1.10016 3 5 cbr 1000 ------- 0 1.0 11.0 10 12
- 1.10016 3 5 cbr 1000 ------- 0 1.0 11.0 10 12
r 1.10224 3 5 cbr 1000 ------- 0 1.0 11.0 9 11
+ 1.10224 5 6 cbr 1000 ------- 0 1.0 11.0 9 11
r 1.102369 7 6 ack 40 ------- 0 10.0 0.0 0 10
+ 1.102369 6 5 ack 40 ------- 0 10.0 0.0 0 10
- 1.102369 6 5 ack 40 ------- 0 10.0 0.0 0 10
+ 1.104 1 2 cbr 1000 ------- 0 1.0 11.0 13 15
- 1.104 1 2 cbr 1000 ------- 0 1.0 11.0 13 15
r 1.10449 6 7 cbr 1000 ------- 0 1.0 11.0 1 2
+ 1.10449 7 9 cbr 1000 ------- 0 1.0 11.0 1 2
- 1.10449 7 9 cbr 1000 ------- 0 1.0 11.0 1 2
r 1.10608 1 2 cbr 1000 ------- 0 1.0 11.0 12 14
+ 1.10608 2 3 cbr 1000 ------- 0 1.0 11.0 12 14
- 1.10608 2 3 cbr 1000 ------- 0 1.0 11.0 12 14
r 1.10816 2 3 cbr 1000 ------- 0 1.0 11.0 11 13
+ 1.10816 3 5 cbr 1000 ------- 0 1.0 11.0 11 13
- 1.10816 3 5 cbr 1000 ------- 0 1.0 11.0 11 13
r 1.11024 3 5 cbr 1000 ------- 0 1.0 11.0 10 12
+ 1.11024 5 6 cbr 1000 ------- 0 1.0 11.0 10 12
- 1.111076 5 6 cbr 1000 ------- 0 1.0 11.0 3 4
+ 1.112 1 2 cbr 1000 ------- 0 1.0 11.0 14 16
- 1.112 1 2 cbr 1000 ------- 0 1.0 11.0 14 16
r 1.113436 6 5 ack 40 ------- 0 10.0 0.0 0 10
+ 1.113436 5 3 ack 40 ------- 0 10.0 0.0 0 10
- 1.113436 5 3 ack 40 ------- 0 10.0 0.0 0 10
r 1.113903 9 11 cbr 1000 ------- 0 1.0 11.0 0 1
r 1.11408 1 2 cbr 1000 ------- 0 1.0 11.0 13 15
+ 1.11408 2 3 cbr 1000 ------- 0 1.0 11.0 13 15
- 1.11408 2 3 cbr 1000 ------- 0 1.0 11.0 13 15
r 1.11457 7 9 cbr 1000 ------- 0 1.0 11.0 1 2
+ 1.11457 9 11 cbr 1000 ------- 0 1.0 11.0 1 2
- 1.11457 9 11 cbr 1000 ------- 0 1.0 11.0 1 2
r 1.11616 2 3 cbr 1000 ------- 0 1.0 11.0 12 14
+ 1.11616 3 5 cbr 1000 ------- 0 1.0 11.0 12 14
- 1.11616 3 5 cbr 1000 ------- 0 1.0 11.0 12 14
r 1.11824 3 5 cbr 1000 ------- 0 1.0 11.0 11 13
+ 1.11824 5 6 cbr 1000 ------- 0 1.0 11.0 11 13
+ 1.12 1 2 cbr 1000 ------- 0 1.0 11.0 15 17
- 1.12 1 2 cbr 1000 ------- 0 1.0 11.0 15 17
r 1.121076 5 6 cbr 1000 ------- 0 1.0 11.0 2 3
+ 1.121076 6 7 cbr 1000 ------- 0 1.0 11.0 2 3
- 1.121076 6 7 cbr 1000 ------- 0 1.0 11.0 2 3
r 1.12208 1 2 cbr 1000 ------- 0 1.0 11.0 14 16
+ 1.12208 2 3 cbr 1000 ------- 0 1.0 11.0 14 16
- 1.12208 2 3 cbr 1000 ------- 0 1.0 11.0 14 16
r 1.123439 5 3 ack 40 ------- 0 10.0 0.0 0 10
+ 1.123439 3 2 ack 40 ------- 0 10.0 0.0 0 10
- 1.123439 3 2 ack 40 ------- 0 10.0 0.0 0 10
r 1.12416 2 3 cbr 1000 ------- 0 1.0 11.0 13 15
+ 1.12416 3 5 cbr 1000 ------- 0 1.0 11.0 13 15
- 1.12416 3 5 cbr 1000 ------- 0 1.0 11.0 13 15
r 1.12624 3 5 cbr 1000 ------- 0 1.0 11.0 12 14
+ 1.12624 5 6 cbr 1000 ------- 0 1.0 11.0 12 14
+ 1.128 1 2 cbr 1000 ------- 0 1.0 11.0 16 18
- 1.128 1 2 cbr 1000 ------- 0 1.0 11.0 16 18
r 1.13008 1 2 cbr 1000 ------- 0 1.0 11.0 15 17
+ 1.13008 2 3 cbr 1000 ------- 0 1.0 11.0 15 17
- 1.13008 2 3 cbr 1000 ------- 0 1.0 11.0 15 17
r 1.131156 6 7 cbr 1000 ------- 0 1.0 11.0 2 3
+ 1.131156 7 9 cbr 1000 ------- 0 1.0 11.0 2 3
- 1.131156 7 9 cbr 1000 ------- 0 1.0 11.0 2 3
r 1.13216 2 3 cbr 1000 ------- 0 1.0 11.0 14 16
+ 1.13216 3 5 cbr 1000 ------- 0 1.0 11.0 14 16
- 1.13216 3 5 cbr 1000 ------- 0 1.0 11.0 14 16
r 1.133442 3 2 ack 40 ------- 0 10.0 0.0 0 10
+ 1.133442 2 0 ack 40 ------- 0 10.0 0.0 0 10
- 1.133442 2 0 ack 40 ------- 0 10.0 0.0 0 10
r 1.13424 3 5 cbr 1000 ------- 0 1.0 11.0 13 15
+ 1.13424 5 6 cbr 1000 ------- 0 1.0 11.0 13 15
+ 1.136 1 2 cbr 1000 ------- 0 1.0 11.0 17 19
- 1.136 1 2 cbr 1000 ------- 0 1.0 11.0 17 19
- 1.137743 5 6 cbr 1000 ------- 0 1.0 11.0 4 5
r 1.13808 1 2 cbr 1000 ------- 0 1.0 11.0 16 18
+ 1.13808 2 3 cbr 1000 ------- 0 1.0 11.0 16 18
- 1.13808 2 3 cbr 1000 ------- 0 1.0 11.0 16 18
r 1.14016 2 3 cbr 1000 ------- 0 1.0 11.0 15 17
+ 1.14016 3 5 cbr 1000 ------- 0 1.0 11.0 15 17
- 1.14016 3 5 cbr 1000 ------- 0 1.0 11.0 15 17
r 1.14057 9 11 cbr 1000 ------- 0 1.0 11.0 1 2
r 1.141236 7 9 cbr 1000 ------- 0 1.0 11.0 2 3
+ 1.141236 9 11 cbr 1000 ------- 0 1.0 11.0 2 3
- 1.141236 9 11 cbr 1000 ------- 0 1.0 11.0 2 3
r 1.14224 3 5 cbr 1000 ------- 0 1.0 11.0 14 16
+ 1.14224 5 6 cbr 1000 ------- 0 1.0 11.0 14 16
r 1.143445 2 0 ack 40 ------- 0 10.0 0.0 0 10
+ 1.143445 0 2 tcp 1540 ------- 0 0.0 10.0 1 20
- 1.143445 0 2 tcp 1540 ------- 0 0.0 10.0 1 20
+ 1.143445 0 2 tcp 1540 ------- 0 0.0 10.0 2 21
- 1.143569 0 2 tcp 1540 ------- 0 0.0 10.0 2 21
+ 1.144 1 2 cbr 1000 ------- 0 1.0 11.0 18 22
- 1.144 1 2 cbr 1000 ------- 0 1.0 11.0 18 22
r 1.14608 1 2 cbr 1000 ------- 0 1.0 11.0 17 19
+ 1.14608 2 3 cbr 1000 ------- 0 1.0 11.0 17 19
- 1.14608 2 3 cbr 1000 ------- 0 1.0 11.0 17 19
r 1.147743 5 6 cbr 1000 ------- 0 1.0 11.0 3 4
+ 1.147743 6 7 cbr 1000 ------- 0 1.0 11.0 3 4
- 1.147743 6 7 cbr 1000 ------- 0 1.0 11.0 3 4
r 1.14816 2 3 cbr 1000 ------- 0 1.0 11.0 16 18
+ 1.14816 3 5 cbr 1000 ------- 0 1.0 11.0 16 18
- 1.14816 3 5 cbr 1000 ------- 0 1.0 11.0 16 18
r 1.15024 3 5 cbr 1000 ------- 0 1.0 11.0 15 17
+ 1.15024 5 6 cbr 1000 ------- 0 1.0 11.0 15 17
+ 1.152 1 2 cbr 1000 ------- 0 1.0 11.0 19 23
- 1.152 1 2 cbr 1000 ------- 0 1.0 11.0 19 23
r 1.153569 0 2 tcp 1540 ------- 0 0.0 10.0 1 20
+ 1.153569 2 3 tcp 1540 ------- 0 0.0 10.0 1 20
- 1.153569 2 3 tcp 1540 ------- 0 0.0 10.0 1 20
r 1.153692 0 2 tcp 1540 ------- 0 0.0 10.0 2 21
+ 1.153692 2 3 tcp 1540 ------- 0 0.0 10.0 2 21
- 1.153692 2 3 tcp 1540 ------- 0 0.0 10.0 2 21
r 1.15408 1 2 cbr 1000 ------- 0 1.0 11.0 18 22
+ 1.15408 2 3 cbr 1000 ------- 0 1.0 11.0 18 22
- 1.15408 2 3 cbr 1000 ------- 0 1.0 11.0 18 22
r 1.15616 2 3 cbr 1000 ------- 0 1.0 11.0 17 19
+ 1.15616 3 5 cbr 1000 ------- 0 1.0 11.0 17 19
- 1.15616 3 5 cbr 1000 ------- 0 1.0 11.0 17 19
r 1.157823 6 7 cbr 1000 ------- 0 1.0 11.0 3 4
+ 1.157823 7 9 cbr 1000 ------- 0 1.0 11.0 3 4
- 1.157823 7 9 cbr 1000 ------- 0 1.0 11.0 3 4
r 1.15824 3 5 cbr 1000 ------- 0 1.0 11.0 16 18
+ 1.15824 5 6 cbr 1000 ------- 0 1.0 11.0 16 18
+ 1.16 1 2 cbr 1000 ------- 0 1.0 11.0 20 24
- 1.16 1 2 cbr 1000 ------- 0 1.0 11.0 20 24
r 1.16208 1 2 cbr 1000 ------- 0 1.0 11.0 19 23
+ 1.16208 2 3 cbr 1000 ------- 0 1.0 11.0 19 23
- 1.16208 2 3 cbr 1000 ------- 0 1.0 11.0 19 23
r 1.163692 2 3 tcp 1540 ------- 0 0.0 10.0 1 20
+ 1.163692 3 5 tcp 1540 ------- 0 0.0 10.0 1 20
- 1.163692 3 5 tcp 1540 ------- 0 0.0 10.0 1 20
r 1.163815 2 3 tcp 1540 ------- 0 0.0 10.0 2 21
+ 1.163815 3 5 tcp 1540 ------- 0 0.0 10.0 2 21
- 1.163815 3 5 tcp 1540 ------- 0 0.0 10.0 2 21
r 1.16416 2 3 cbr 1000 ------- 0 1.0 11.0 18 22
+ 1.16416 3 5 cbr 1000 ------- 0 1.0 11.0 18 22
- 1.16416 3 5 cbr 1000 ------- 0 1.0 11.0 18 22
- 1.16441 5 6 cbr 1000 ------- 0 1.0 11.0 5 6
r 1.16624 3 5 cbr 1000 ------- 0 1.0 11.0 17 19
+ 1.16624 5 6 cbr 1000 ------- 0 1.0 11.0 17 19
r 1.167236 9 11 cbr 1000 ------- 0 1.0 11.0 2 3
r 1.167903 7 9 cbr 1000 ------- 0 1.0 11.0 3 4
+ 1.167903 9 11 cbr 1000 ------- 0 1.0 11.0 3 4
- 1.167903 9 11 cbr 1000 ------- 0 1.0 11.0 3 4
+ 1.168 1 2 cbr 1000 ------- 0 1.0 11.0 21 25
- 1.168 1 2 cbr 1000 ------- 0 1.0 11.0 21 25
r 1.17008 1 2 cbr 1000 ------- 0 1.0 11.0 20 24
+ 1.17008 2 3 cbr 1000 ------- 0 1.0 11.0 20 24
- 1.17008 2 3 cbr 1000 ------- 0 1.0 11.0 20 24
r 1.17216 2 3 cbr 1000 ------- 0 1.0 11.0 19 23
+ 1.17216 3 5 cbr 1000 ------- 0 1.0 11.0 19 23
- 1.17216 3 5 cbr 1000 ------- 0 1.0 11.0 19 23
r 1.173815 3 5 tcp 1540 ------- 0 0.0 10.0 1 20
+ 1.173815 5 6 tcp 1540 ------- 0 0.0 10.0 1 20
r 1.173938 3 5 tcp 1540 ------- 0 0.0 10.0 2 21
+ 1.173938 5 6 tcp 1540 ------- 0 0.0 10.0 2 21
r 1.17424 3 5 cbr 1000 ------- 0 1.0 11.0 18 22
+ 1.17424 5 6 cbr 1000 ------- 0 1.0 11.0 18 22
r 1.17441 5 6 cbr 1000 ------- 0 1.0 11.0 4 5
+ 1.17441 6 7 cbr 1000 ------- 0 1.0 11.0 4 5
- 1.17441 6 7 cbr 1000 ------- 0 1.0 11.0 4 5
+ 1.176 1 2 cbr 1000 ------- 0 1.0 11.0 22 26
- 1.176 1 2 cbr 1000 ------- 0 1.0 11.0 22 26
r 1.17808 1 2 cbr 1000 ------- 0 1.0 11.0 21 25
+ 1.17808 2 3 cbr 1000 ------- 0 1.0 11.0 21 25
- 1.17808 2 3 cbr 1000 ------- 0 1.0 11.0 21 25
r 1.18016 2 3 cbr 1000 ------- 0 1.0 11.0 20 24
+ 1.18016 3 5 cbr 1000 ------- 0 1.0 11.0 20 24
- 1.18016 3 5 cbr 1000 ------- 0 1.0 11.0 20 24
r 1.18224 3 5 cbr 1000 ------- 0 1.0 11.0 19 23
+ 1.18224 5 6 cbr 1000 ------- 0 1.0 11.0 19 23
+ 1.184 1 2 cbr 1000 ------- 0 1.0 11.0 23 27
- 1.184 1 2 cbr 1000 ------- 0 1.0 11.0 23 27
r 1.18449 6 7 cbr 1000 ------- 0 1.0 11.0 4 5
+ 1.18449 7 9 cbr 1000 ------- 0 1.0 11.0 4 5
- 1.18449 7 9 cbr 1000 ------- 0 1.0 11.0 4 5
r 1.18608 1 2 cbr 1000 ------- 0 1.0 11.0 22 26
+ 1.18608 2 3 cbr 1000 ------- 0 1.0 11.0 22 26
- 1.18608 2 3 cbr 1000 ------- 0 1.0 11.0 22 26
r 1.18816 2 3 cbr 1000 ------- 0 1.0 11.0 21 25
+ 1.18816 3 5 cbr 1000 ------- 0 1.0 11.0 21 25
- 1.18816 3 5 cbr 1000 ------- 0 1.0 11.0 21 25
r 1.19024 3 5 cbr 1000 ------- 0 1.0 11.0 20 24
+ 1.19024 5 6 cbr 1000 ------- 0 1.0 11.0 20 24
- 1.191076 5 6 cbr 1000 ------- 0 1.0 11.0 6 7
+ 1.192 1 2 cbr 1000 ------- 0 1.0 11.0 24 28
- 1.192 1 2 cbr 1000 ------- 0 1.0 11.0 24 28
r 1.193903 9 11 cbr 1000 ------- 0 1.0 11.0 3 4
r 1.19408 1 2 cbr 1000 ------- 0 1.0 11.0 23 27
+ 1.19408 2 3 cbr 1000 ------- 0 1.0 11.0 23 27
- 1.19408 2 3 cbr 1000 ------- 0 1.0 11.0 23 27
r 1.19457 7 9 cbr 1000 ------- 0 1.0 11.0 4 5
+ 1.19457 9 11 cbr 1000 ------- 0 1.0 11.0 4 5
- 1.19457 9 11 cbr 1000 ------- 0 1.0 11.0 4 5
r 1.19616 2 3 cbr 1000 ------- 0 1.0 11.0 22 26
+ 1.19616 3 5 cbr 1000 ------- 0 1.0 11.0 22 26
- 1.19616 3 5 cbr 1000 ------- 0 1.0 11.0 22 26
r 1.19824 3 5 cbr 1000 ------- 0 1.0 11.0 21 25
+ 1.19824 5 6 cbr 1000 ------- 0 1.0 11.0 21 25
+ 1.2 1 2 cbr 1000 ------- 0 1.0 11.0 25 29
- 1.2 1 2 cbr 1000 ------- 0 1.0 11.0 25 29
r 1.201076 5 6 cbr 1000 ------- 0 1.0 11.0 5 6
+ 1.201076 6 7 cbr 1000 ------- 0 1.0 11.0 5 6
- 1.201076 6 7 cbr 1000 ------- 0 1.0 11.0 5 6
r 1.20208 1 2 cbr 1000 ------- 0 1.0 11.0 24 28
+ 1.20208 2 3 cbr 1000 ------- 0 1.0 11.0 24 28
- 1.20208 2 3 cbr 1000 ------- 0 1.0 11.0 24 28
r 1.20416 2 3 cbr 1000 ------- 0 1.0 11.0 23 27
+ 1.20416 3 5 cbr 1000 ------- 0 1.0 11.0 23 27
- 1.20416 3 5 cbr 1000 ------- 0 1.0 11.0 23 27
r 1.20624 3 5 cbr 1000 ------- 0 1.0 11.0 22 26
+ 1.20624 5 6 cbr 1000 ------- 0 1.0 11.0 22 26
+ 1.208 1 2 cbr 1000 ------- 0 1.0 11.0 26 30
- 1.208 1 2 cbr 1000 ------- 0 1.0 11.0 26 30
r 1.21008 1 2 cbr 1000 ------- 0 1.0 11.0 25 29
+ 1.21008 2 3 cbr 1000 ------- 0 1.0 11.0 25 29
- 1.21008 2 3 cbr 1000 ------- 0 1.0 11.0 25 29
r 1.211156 6 7 cbr 1000 ------- 0 1.0 11.0 5 6
+ 1.211156 7 9 cbr 1000 ------- 0 1.0 11.0 5 6
- 1.211156 7 9 cbr 1000 ------- 0 1.0 11.0 5 6
r 1.21216 2 3 cbr 1000 ------- 0 1.0 11.0 24 28
+ 1.21216 3 5 cbr 1000 ------- 0 1.0 11.0 24 28
- 1.21216 3 5 cbr 1000 ------- 0 1.0 11.0 24 28
r 1.21424 3 5 cbr 1000 ------- 0 1.0 11.0 23 27
+ 1.21424 5 6 cbr 1000 ------- 0 1.0 11.0 23 27
+ 1.216 1 2 cbr 1000 ------- 0 1.0 11.0 27 31
- 1.216 1 2 cbr 1000 ------- 0 1.0 11.0 27 31
- 1.217743 5 6 cbr 1000 ------- 0 1.0 11.0 7 8
r 1.21808 1 2 cbr 1000 ------- 0 1.0 11.0 26 30
+ 1.21808 2 3 cbr 1000 ------- 0 1.0 11.0 26 30
- 1.21808 2 3 cbr 1000 ------- 0 1.0 11.0 26 30
r 1.22016 2 3 cbr 1000 ------- 0 1.0 11.0 25 29
+ 1.22016 3 5 cbr 1000 ------- 0 1.0 11.0 25 29
- 1.22016 3 5 cbr 1000 ------- 0 1.0 11.0 25 29
r 1.22057 9 11 cbr 1000 ------- 0 1.0 11.0 4 5
r 1.221236 7 9 cbr 1000 ------- 0 1.0 11.0 5 6
+ 1.221236 9 11 cbr 1000 ------- 0 1.0 11.0 5 6
- 1.221236 9 11 cbr 1000 ------- 0 1.0 11.0 5 6
r 1.22224 3 5 cbr 1000 ------- 0 1.0 11.0 24 28
+ 1.22224 5 6 cbr 1000 ------- 0 1.0 11.0 24 28
+ 1.224 1 2 cbr 1000 ------- 0 1.0 11.0 28 32
- 1.224 1 2 cbr 1000 ------- 0 1.0 11.0 28 32
r 1.22608 1 2 cbr 1000 ------- 0 1.0 11.0 27 31
+ 1.22608 2 3 cbr 1000 ------- 0 1.0 11.0 27 31
- 1.22608 2 3 cbr 1000 ------- 0 1.0 11.0 27 31
r 1.227743 5 6 cbr 1000 ------- 0 1.0 11.0 6 7
+ 1.227743 6 7 cbr 1000 ------- 0 1.0 11.0 6 7
- 1.227743 6 7 cbr 1000 ------- 0 1.0 11.0 6 7
r 1.22816 2 3 cbr 1000 ------- 0 1.0 11.0 26 30
+ 1.22816 3 5 cbr 1000 ------- 0 1.0 11.0 26 30
- 1.22816 3 5 cbr 1000 ------- 0 1.0 11.0 26 30
r 1.23024 3 5 cbr 1000 ------- 0 1.0 11.0 25 29
+ 1.23024 5 6 cbr 1000 ------- 0 1.0 11.0 25 29
+ 1.232 1 2 cbr 1000 ------- 0 1.0 11.0 29 33
- 1.232 1 2 cbr 1000 ------- 0 1.0 11.0 29 33
r 1.23408 1 2 cbr 1000 ------- 0 1.0 11.0 28 32
+ 1.23408 2 3 cbr 1000 ------- 0 1.0 11.0 28 32
- 1.23408 2 3 cbr 1000 ------- 0 1.0 11.0 28 32
r 1.23616 2 3 cbr 1000 ------- 0 1.0 11.0 27 31
+ 1.23616 3 5 cbr 1000 ------- 0 1.0 11.0 27 31
- 1.23616 3 5 cbr 1000 ------- 0 1.0 11.0 27 31
r 1.237823 6 7 cbr 1000 ------- 0 1.0 11.0 6 7
+ 1.237823 7 9 cbr 1000 ------- 0 1.0 11.0 6 7
- 1.237823 7 9 cbr 1000 ------- 0 1.0 11.0 6 7
r 1.23824 3 5 cbr 1000 ------- 0 1.0 11.0 26 30
+ 1.23824 5 6 cbr 1000 ------- 0 1.0 11.0 26 30
+ 1.24 1 2 cbr 1000 ------- 0 1.0 11.0 30 34
- 1.24 1 2 cbr 1000 ------- 0 1.0 11.0 30 34
r 1.24208 1 2 cbr 1000 ------- 0 1.0 11.0 29 33
+ 1.24208 2 3 cbr 1000 ------- 0 1.0 11.0 29 33
- 1.24208 2 3 cbr 1000 ------- 0 1.0 11.0 29 33
r 1.24416 2 3 cbr 1000 ------- 0 1.0 11.0 28 32
+ 1.24416 3 5 cbr 1000 ------- 0 1.0 11.0 28 32
- 1.24416 3 5 cbr 1000 ------- 0 1.0 11.0 28 32
- 1.24441 5 6 cbr 1000 ------- 0 1.0 11.0 8 9
r 1.24624 3 5 cbr 1000 ------- 0 1.0 11.0 27 31
+ 1.24624 5 6 cbr 1000 ------- 0 1.0 11.0 27 31
r 1.247236 9 11 cbr 1000 ------- 0 1.0 11.0 5 6
r 1.247903 7 9 cbr 1000 ------- 0 1.0 11.0 6 7
+ 1.247903 9 11 cbr 1000 ------- 0 1.0 11.0 6 7
- 1.247903 9 11 cbr 1000 ------- 0 1.0 11.0 6 7
+ 1.248 1 2 cbr 1000 ------- 0 1.0 11.0 31 35
- 1.248 1 2 cbr 1000 ------- 0 1.0 11.0 31 35
r 1.25008 1 2 cbr 1000 ------- 0 1.0 11.0 30 34
+ 1.25008 2 3 cbr 1000 ------- 0 1.0 11.0 30 34
- 1.25008 2 3 cbr 1000 ------- 0 1.0 11.0 30 34
r 1.25216 2 3 cbr 1000 ------- 0 1.0 11.0 29 33
+ 1.25216 3 5 cbr 1000 ------- 0 1.0 11.0 29 33
- 1.25216 3 5 cbr 1000 ------- 0 1.0 11.0 29 33
r 1.25424 3 5 cbr 1000 ------- 0 1.0 11.0 28 32
+ 1.25424 5 6 cbr 1000 ------- 0 1.0 11.0 28 32
r 1.25441 5 6 cbr 1000 ------- 0 1.0 11.0 7 8
+ 1.25441 6 7 cbr 1000 ------- 0 1.0 11.0 7 8
- 1.25441 6 7 cbr 1000 ------- 0 1.0 11.0 7 8
+ 1.256 1 2 cbr 1000 ------- 0 1.0 11.0 32 36
- 1.256 1 2 cbr 1000 ------- 0 1.0 11.0 32 36
r 1.25808 1 2 cbr 1000 ------- 0 1.0 11.0 31 35
+ 1.25808 2 3 cbr 1000 ------- 0 1.0 11.0 31 35
- 1.25808 2 3 cbr 1000 ------- 0 1.0 11.0 31 35
r 1.26016 2 3 cbr 1000 ------- 0 1.0 11.0 30 34
+ 1.26016 3 5 cbr 1000 ------- 0 1.0 11.0 30 34
- 1.26016 3 5 cbr 1000 ------- 0 1.0 11.0 30 34
r 1.26224 3 5 cbr 1000 ------- 0 1.0 11.0 29 33
+ 1.26224 5 6 cbr 1000 ------- 0 1.0 11.0 29 33
+ 1.264 1 2 cbr 1000 ------- 0 1.0 11.0 33 37
- 1.264 1 2 cbr 1000 ------- 0 1.0 11.0 33 37
r 1.26449 6 7 cbr 1000 ------- 0 1.0 11.0 7 8
+ 1.26449 7 9 cbr 1000 ------- 0 1.0 11.0 7 8
- 1.26449 7 9 cbr 1000 ------- 0 1.0 11.0 7 8
r 1.26608 1 2 cbr 1000 ------- 0 1.0 11.0 32 36
+ 1.26608 2 3 cbr 1000 ------- 0 1.0 11.0 32 36
- 1.26608 2 3 cbr 1000 ------- 0 1.0 11.0 32 36
r 1.26816 2 3 cbr 1000 ------- 0 1.0 11.0 31 35
+ 1.26816 3 5 cbr 1000 ------- 0 1.0 11.0 31 35
- 1.26816 3 5 cbr 1000 ------- 0 1.0 11.0 31 35
r 1.27024 3 5 cbr 1000 ------- 0 1.0 11.0 30 34
+ 1.27024 5 6 cbr 1000 ------- 0 1.0 11.0 30 34
- 1.271076 5 6 cbr 1000 ------- 0 1.0 11.0 9 11
+ 1.272 1 2 cbr 1000 ------- 0 1.0 11.0 34 38
- 1.272 1 2 cbr 1000 ------- 0 1.0 11.0 34 38
r 1.273903 9 11 cbr 1000 ------- 0 1.0 11.0 6 7
r 1.27408 1 2 cbr 1000 ------- 0 1.0 11.0 33 37
+ 1.27408 2 3 cbr 1000 ------- 0 1.0 11.0 33 37
- 1.27408 2 3 cbr 1000 ------- 0 1.0 11.0 33 37
r 1.27457 7 9 cbr 1000 ------- 0 1.0 11.0 7 8
+ 1.27457 9 11 cbr 1000 ------- 0 1.0 11.0 7 8
- 1.27457 9 11 cbr 1000 ------- 0 1.0 11.0 7 8
r 1.27616 2 3 cbr 1000 ------- 0 1.0 11.0 32 36
+ 1.27616 3 5 cbr 1000 ------- 0 1.0 11.0 32 36
- 1.27616 3 5 cbr 1000 ------- 0 1.0 11.0 32 36
r 1.27824 3 5 cbr 1000 ------- 0 1.0 11.0 31 35
+ 1.27824 5 6 cbr 1000 ------- 0 1.0 11.0 31 35
+ 1.28 1 2 cbr 1000 ------- 0 1.0 11.0 35 39
- 1.28 1 2 cbr 1000 ------- 0 1.0 11.0 35 39
r 1.281076 5 6 cbr 1000 ------- 0 1.0 11.0 8 9
+ 1.281076 6 7 cbr 1000 ------- 0 1.0 11.0 8 9
- 1.281076 6 7 cbr 1000 ------- 0 1.0 11.0 8 9
r 1.28208 1 2 cbr 1000 ------- 0 1.0 11.0 34 38
+ 1.28208 2 3 cbr 1000 ------- 0 1.0 11.0 34 38
- 1.28208 2 3 cbr 1000 ------- 0 1.0 11.0 34 38
r 1.28416 2 3 cbr 1000 ------- 0 1.0 11.0 33 37
+ 1.28416 3 5 cbr 1000 ------- 0 1.0 11.0 33 37
- 1.28416 3 5 cbr 1000 ------- 0 1.0 11.0 33 37
r 1.28624 3 5 cbr 1000 ------- 0 1.0 11.0 32 36
+ 1.28624 5 6 cbr 1000 ------- 0 1.0 11.0 32 36
+ 1.288 1 2 cbr 1000 ------- 0 1.0 11.0 36 40
- 1.288 1 2 cbr 1000 ------- 0 1.0 11.0 36 40
r 1.29008 1 2 cbr 1000 ------- 0 1.0 11.0 35 39
+ 1.29008 2 3 cbr 1000 ------- 0 1.0 11.0 35 39
- 1.29008 2 3 cbr 1000 ------- 0 1.0 11.0 35 39
r 1.291156 6 7 cbr 1000 ------- 0 1.0 11.0 8 9
+ 1.291156 7 9 cbr 1000 ------- 0 1.0 11.0 8 9
- 1.291156 7 9 cbr 1000 ------- 0 1.0 11.0 8 9
r 1.29216 2 3 cbr 1000 ------- 0 1.0 11.0 34 38
+ 1.29216 3 5 cbr 1000 ------- 0 1.0 11.0 34 38
- 1.29216 3 5 cbr 1000 ------- 0 1.0 11.0 34 38
r 1.29424 3 5 cbr 1000 ------- 0 1.0 11.0 33 37
+ 1.29424 5 6 cbr 1000 ------- 0 1.0 11.0 33 37
+ 1.296 1 2 cbr 1000 ------- 0 1.0 11.0 37 41
- 1.296 1 2 cbr 1000 ------- 0 1.0 11.0 37 41
- 1.297743 5 6 cbr 1000 ------- 0 1.0 11.0 10 12
r 1.29808 1 2 cbr 1000 ------- 0 1.0 11.0 36 40
+ 1.29808 2 3 cbr 1000 ------- 0 1.0 11.0 36 40
- 1.29808 2 3 cbr 1000 ------- 0 1.0 11.0 36 40
r 1.30016 2 3 cbr 1000 ------- 0 1.0 11.0 35 39
+ 1.30016 3 5 cbr 1000 ------- 0 1.0 11.0 35 39
- 1.30016 3 5 cbr 1000 ------- 0 1.0 11.0 35 39
r 1.30057 9 11 cbr 1000 ------- 0 1.0 11.0 7 8
r 1.301236 7 9 cbr 1000 ------- 0 1.0 11.0 8 9
+ 1.301236 9 11 cbr 1000 ------- 0 1.0 11.0 8 9
- 1.301236 9 11 cbr 1000 ------- 0 1.0 11.0 8 9
r 1.30224 3 5 cbr 1000 ------- 0 1.0 11.0 34 38
+ 1.30224 5 6 cbr 1000 ------- 0 1.0 11.0 34 38
+ 1.304 1 2 cbr 1000 ------- 0 1.0 11.0 38 42
- 1.304 1 2 cbr 1000 ------- 0 1.0 11.0 38 42
r 1.30608 1 2 cbr 1000 ------- 0 1.0 11.0 37 41
+ 1.30608 2 3 cbr 1000 ------- 0 1.0 11.0 37 41
- 1.30608 2 3 cbr 1000 ------- 0 1.0 11.0 37 41
r 1.307743 5 6 cbr 1000 ------- 0 1.0 11.0 9 11
+ 1.307743 6 7 cbr 1000 ------- 0 1.0 11.0 9 11
- 1.307743 6 7 cbr 1000 ------- 0 1.0 11.0 9 11
r 1.30816 2 3 cbr 1000 ------- 0 1.0 11.0 36 40
+ 1.30816 3 5 cbr 1000 ------- 0 1.0 11.0 36 40
- 1.30816 3 5 cbr 1000 ------- 0 1.0 11.0 36 40
r 1.31024 3 5 cbr 1000 ------- 0 1.0 11.0 35 39
+ 1.31024 5 6 cbr 1000 ------- 0 1.0 11.0 35 39
+ 1.312 1 2 cbr 1000 ------- 0 1.0 11.0 39 43
- 1.312 1 2 cbr 1000 ------- 0 1.0 11.0 39 43
r 1.31408 1 2 cbr 1000 ------- 0 1.0 11.0 38 42
+ 1.31408 2 3 cbr 1000 ------- 0 1.0 11.0 38 42
- 1.31408 2 3 cbr 1000 ------- 0 1.0 11.0 38 42
r 1.31616 2 3 cbr 1000 ------- 0 1.0 11.0 37 41
+ 1.31616 3 5 cbr 1000 ------- 0 1.0 11.0 37 41
- 1.31616 3 5 cbr 1000 ------- 0 1.0 11.0 37 41
r 1.317823 6 7 cbr 1000 ------- 0 1.0 11.0 9 11
+ 1.317823 7 9 cbr 1000 ------- 0 1.0 11.0 9 11
- 1.317823 7 9 cbr 1000 ------- 0 1.0 11.0 9 11
r 1.31824 3 5 cbr 1000 ------- 0 1.0 11.0 36 40
+ 1.31824 5 6 cbr 1000 ------- 0 1.0 11.0 36 40
+ 1.32 1 2 cbr 1000 ------- 0 1.0 11.0 40 44
- 1.32 1 2 cbr 1000 ------- 0 1.0 11.0 40 44
r 1.32208 1 2 cbr 1000 ------- 0 1.0 11.0 39 43
+ 1.32208 2 3 cbr 1000 ------- 0 1.0 11.0 39 43
- 1.32208 2 3 cbr 1000 ------- 0 1.0 11.0 39 43
r 1.32416 2 3 cbr 1000 ------- 0 1.0 11.0 38 42
+ 1.32416 3 5 cbr 1000 ------- 0 1.0 11.0 38 42
- 1.32416 3 5 cbr 1000 ------- 0 1.0 11.0 38 42
- 1.32441 5 6 cbr 1000 ------- 0 1.0 11.0 11 13
r 1.32624 3 5 cbr 1000 ------- 0 1.0 11.0 37 41
+ 1.32624 5 6 cbr 1000 ------- 0 1.0 11.0 37 41
r 1.327236 9 11 cbr 1000 ------- 0 1.0 11.0 8 9
r 1.327903 7 9 cbr 1000 ------- 0 1.0 11.0 9 11
+ 1.327903 9 11 cbr 1000 ------- 0 1.0 11.0 9 11
- 1.327903 9 11 cbr 1000 ------- 0 1.0 11.0 9 11
+ 1.328 1 2 cbr 1000 ------- 0 1.0 11.0 41 45
- 1.328 1 2 cbr 1000 ------- 0 1.0 11.0 41 45
r 1.33008 1 2 cbr 1000 ------- 0 1.0 11.0 40 44
+ 1.33008 2 3 cbr 1000 ------- 0 1.0 11.0 40 44
- 1.33008 2 3 cbr 1000 ------- 0 1.0 11.0 40 44
r 1.33216 2 3 cbr 1000 ------- 0 1.0 11.0 39 43
+ 1.33216 3 5 cbr 1000 ------- 0 1.0 11.0 39 43
- 1.33216 3 5 cbr 1000 ------- 0 1.0 11.0 39 43
r 1.33424 3 5 cbr 1000 ------- 0 1.0 11.0 38 42
+ 1.33424 5 6 cbr 1000 ------- 0 1.0 11.0 38 42
r 1.33441 5 6 cbr 1000 ------- 0 1.0 11.0 10 12
+ 1.33441 6 7 cbr 1000 ------- 0 1.0 11.0 10 12
- 1.33441 6 7 cbr 1000 ------- 0 1.0 11.0 10 12
+ 1.336 1 2 cbr 1000 ------- 0 1.0 11.0 42 46
- 1.336 1 2 cbr 1000 ------- 0 1.0 11.0 42 46
r 1.33808 1 2 cbr 1000 ------- 0 1.0 11.0 41 45
+ 1.33808 2 3 cbr 1000 ------- 0 1.0 11.0 41 45
- 1.33808 2 3 cbr 1000 ------- 0 1.0 11.0 41 45
r 1.34016 2 3 cbr 1000 ------- 0 1.0 11.0 40 44
+ 1.34016 3 5 cbr 1000 ------- 0 1.0 11.0 40 44
- 1.34016 3 5 cbr 1000 ------- 0 1.0 11.0 40 44
r 1.34224 3 5 cbr 1000 ------- 0 1.0 11.0 39 43
+ 1.34224 5 6 cbr 1000 ------- 0 1.0 11.0 39 43
+ 1.344 1 2 cbr 1000 ------- 0 1.0 11.0 43 47
- 1.344 1 2 cbr 1000 ------- 0 1.0 11.0 43 47
r 1.34449 6 7 cbr 1000 ------- 0 1.0 11.0 10 12
+ 1.34449 7 9 cbr 1000 ------- 0 1.0 11.0 10 12
- 1.34449 7 9 cbr 1000 ------- 0 1.0 11.0 10 12
r 1.34608 1 2 cbr 1000 ------- 0 1.0 11.0 42 46
+ 1.34608 2 3 cbr 1000 ------- 0 1.0 11.0 42 46
- 1.34608 2 3 cbr 1000 ------- 0 1.0 11.0 42 46
r 1.34816 2 3 cbr 1000 ------- 0 1.0 11.0 41 45
+ 1.34816 3 5 cbr 1000 ------- 0 1.0 11.0 41 45
- 1.34816 3 5 cbr 1000 ------- 0 1.0 11.0 41 45
r 1.35024 3 5 cbr 1000 ------- 0 1.0 11.0 40 44
+ 1.35024 5 6 cbr 1000 ------- 0 1.0 11.0 40 44
- 1.351076 5 6 cbr 1000 ------- 0 1.0 11.0 12 14
+ 1.352 1 2 cbr 1000 ------- 0 1.0 11.0 44 48
- 1.352 1 2 cbr 1000 ------- 0 1.0 11.0 44 48
r 1.353903 9 11 cbr 1000 ------- 0 1.0 11.0 9 11
r 1.35408 1 2 cbr 1000 ------- 0 1.0 11.0 43 47
+ 1.35408 2 3 cbr 1000 ------- 0 1.0 11.0 43 47
- 1.35408 2 3 cbr 1000 ------- 0 1.0 11.0 43 47
r 1.35457 7 9 cbr 1000 ------- 0 1.0 11.0 10 12
+ 1.35457 9 11 cbr 1000 ------- 0 1.0 11.0 10 12
- 1.35457 9 11 cbr 1000 ------- 0 1.0 11.0 10 12
r 1.35616 2 3 cbr 1000 ------- 0 1.0 11.0 42 46
+ 1.35616 3 5 cbr 1000 ------- 0 1.0 11.0 42 46
- 1.35616 3 5 cbr 1000 ------- 0 1.0 11.0 42 46
r 1.35824 3 5 cbr 1000 ------- 0 1.0 11.0 41 45
+ 1.35824 5 6 cbr 1000 ------- 0 1.0 11.0 41 45
+ 1.36 1 2 cbr 1000 ------- 0 1.0 11.0 45 49
- 1.36 1 2 cbr 1000 ------- 0 1.0 11.0 45 49
r 1.361076 5 6 cbr 1000 ------- 0 1.0 11.0 11 13
+ 1.361076 6 7 cbr 1000 ------- 0 1.0 11.0 11 13
- 1.361076 6 7 cbr 1000 ------- 0 1.0 11.0 11 13
r 1.36208 1 2 cbr 1000 ------- 0 1.0 11.0 44 48
+ 1.36208 2 3 cbr 1000 ------- 0 1.0 11.0 44 48
- 1.36208 2 3 cbr 1000 ------- 0 1.0 11.0 44 48
r 1.36416 2 3 cbr 1000 ------- 0 1.0 11.0 43 47
+ 1.36416 3 5 cbr 1000 ------- 0 1.0 11.0 43 47
- 1.36416 3 5 cbr 1000 ------- 0 1.0 11.0 43 47
r 1.36624 3 5 cbr 1000 ------- 0 1.0 11.0 42 46
+ 1.36624 5 6 cbr 1000 ------- 0 1.0 11.0 42 46
+ 1.368 1 2 cbr 1000 ------- 0 1.0 11.0 46 50
- 1.368 1 2 cbr 1000 ------- 0 1.0 11.0 46 50
r 1.37008 1 2 cbr 1000 ------- 0 1.0 11.0 45 49
+ 1.37008 2 3 cbr 1000 ------- 0 1.0 11.0 45 49
- 1.37008 2 3 cbr 1000 ------- 0 1.0 11.0 45 49